8
Step 0
1 1 -1.617009810547e+02   3.499836431780e+02   9.670322036942e+01 
2 1  6.579416937860e+01   2.280060486291e+02  -1.582839607652e+02 
3 1 -6.135575297045e+01   6.867441165061e+01  -2.235871020339e+01 
4 1  3.367717746942e+02   6.945229931662e+01   5.895565159453e+02 
5 1 -1.941750986483e+02  -3.959948441136e+02   1.451362027938e+02 
6 1 -3.561674960723e+02   2.371270333453e+02   4.390690026849e+01 
7 1  6.398257805213e+01  -3.981415810091e+02  -1.052703156695e+02 
8 1  3.094942320484e+02  -9.294175695775e+01   8.728695809416e+00 
8
Step 1000
1 1  2.082362982011e+02   6.766967292938e+02   1.673438447333e+02 
2 1  1.158600060727e+02   4.552244120077e+02  -7.511689563749e+01 
3 1  6.913538009281e+01  -4.408849722024e+02  -1.356992586203e+02 
4 1  6.502164693208e+01   6.445101238004e+01  -4.353022398264e+02 
5 1 -3.041439646413e+02  -8.864691453920e+02   8.397939842547e+02 
6 1 -1.495495196749e+02   1.739150851086e+02   4.331708511579e+02 
7 1  3.914363626593e+02  -4.369237502546e+02   1.362363307910e+02 
8 1 -1.566345649467e+02   7.551265920399e+02   2.255555959163e+02 
8
Step 2000
1 1  3.903823280014e+02   3.579855548666e+02  -3.559643418191e+01 
2 1 -1.162111893929e+02   2.200927020075e+02  -2.959224689264e+01 
3 1 -1.267888397709e+01  -1.863882160997e+02  -2.644618549624e+02 
4 1 -1.631426067779e+02  -2.114998554515e+02  -5.698846450708e+02 
5 1 -1.768029700919e+02  -2.454675930841e+02   3.570645143650e+02 
6 1 -6.269551168445e+01   1.963172776518e+02   2.145525815536e+02 
7 1  3.429118575532e+02  -1.321706458180e+02   1.337208543726e+02 
8 1 -3.370108426383e+02   7.115086591328e+02   1.989612981834e+02 
8
Step 3000
1 1  1.397474642387e+02  -1.588799513835e+02  -3.362875582548e+02 
2 1 -2.900925666967e+02  -3.413352128091e+02   5.536839770628e+01 
3 1 -2.756221660969e+02   4.192524481875e+02  -7.691277755142e+01 
4 1 -1.810258661894e+02  -4.759413238304e+02   1.848721722083e+02 
5 1  1.696335688857e+02   7.036634822241e+02  -5.808549523634e+02 
6 1  3.378647788053e+01   8.437228308495e+01  -2.905791780226e+02 
7 1  4.745117339478e+01   9.768164811010e+01  -7.369873592669e+01 
8 1 -2.503564024543e+02  -1.856081495315e+02  -2.417775305067e+01 
8
Step 4000
1 1 -2.203142995312e+02  -3.786885268144e+02  -3.250782445815e+02 
2 1 -9.566095626072e+01  -7.008587962802e+02   9.358014456675e+01 
3 1 -3.645473410870e+02   4.999323030848e+02   2.847640786022e+02 
4 1 -1.156134731434e+02  -3.222210006267e+02   6.058808332086e+02 
5 1  4.295293970656e+02   7.636057020272e+02  -7.294481349823e+02 
6 1  2.745253492355e+02  -2.750738705597e+02  -3.375217567842e+02 
7 1 -1.357796084750e+02   5.460049464514e+01  -1.565639095018e+02 
8 1 -1.506721315853e+02  -8.782306474863e+02  -2.274867811049e+02 
8
Step 5000
1 1 -3.249361640847e+02  -2.230999532170e+02   3.855691138403e+01 
2 1  2.792576717445e+02  -4.353087654469e+02  -1.188303785148e+01 
3 1 -1.160923143024e+02  -7.177741440470e+01   3.912542417129e+02 
4 1 -1.180592893955e+02   2.021965755826e+02   6.482107888282e+01 
5 1  3.111017261666e+02  -8.522687365104e+01  -3.145117431118e+00 
6 1  4.208999410034e+02  -5.868999093356e+02   1.583403526108e+02 
7 1 -9.493933290454e+01  -3.081535792117e+01   4.256901083934e+01 
8 1 -1.483668882362e+02  -6.234315969061e+02  -2.246238687293e+02 
8
Step 6000
1 1 -2.224192911486e+02   1.288680817558e+01   3.208384715326e+02 
2 1  3.803615618028e+02   2.442865089576e+02  -1.479512868564e+02 
3 1  2.030741152386e+02  -5.616040133897e+02   1.509023922573e+02 
4 1 -1.370141595770e+02   5.880206947772e+02  -6.781409639651e+02 
5 1 -7.530585378210e+01  -7.442165903731e+02   5.497722766520e+02 
6 1  1.883626869566e+02  -4.912169047102e+02   5.178987052887e+02 
7 1 -5.047443431327e+01   1.001969037223e+02   2.940361861117e+02 
8 1 -1.384971545512e+02   1.348403115924e+02  -2.268684216246e+01 
8
Step 7000
1 1 -1.244392027192e+02   9.488031205110e+01   1.704525995610e+02 
2 1  8.632577170552e+01   7.087674624294e+02  -1.004866016804e+02 
3 1  2.710818379175e+02  -4.093333932360e+02  -1.068398305203e+02 
4 1 -9.083131978355e+00   4.370901368591e+02  -6.727818143145e+02 
5 1 -3.475726436184e+02  -4.851662927672e+02   2.753367137628e+02 
6 1 -2.979369741312e+02  -1.354133228439e-01   2.491249576326e+02 
7 1 -1.706563715351e+02   3.468727864849e+02   2.823936084398e+02 
8 1  3.222562210357e+00   5.392736490924e+02   2.219296787373e+02 
8
Step 8000
1 1 -6.270359350302e+01   1.513562085144e+01  -2.466355327371e+02 
2 1 -2.211675883673e+02   4.880784935853e+02   1.581086851816e+02 
3 1  7.922563861132e+01   1.149518817364e+02  -6.970448951891e+01 
4 1  2.330305649224e+02  -1.061824325015e+02  -1.481112375000e+01 
5 1 -2.319930035885e+02   2.661419545002e+02  -3.395309494683e+02 
6 1 -5.070162717789e+02   4.053961649456e+02  -3.242281061520e+02 
7 1 -3.204886070673e+02   4.002371808597e+02  -2.969020476266e+00 
8 1  2.111869745947e+02   3.063743719135e+02   3.023099823337e+02 
8
Step 9000
1 1  8.586802674738e+01  -8.877301099016e+01  -4.210643686234e+02 
2 1 -1.689461069882e+02  -1.773915016270e+02   3.886510613287e+02 
3 1 -8.853042480335e+01   3.312806573903e+02   1.130178114052e+02 
4 1  3.181134710963e+02  -5.013707175528e+02   3.910697446128e+02 
5 1  1.166704926174e+02   5.807249630269e+02  -4.165681479069e+02 
6 1 -1.560526719679e+02   3.161302763194e+02  -5.043641604178e+02 
7 1 -2.285186654965e+02   1.626272113016e+02  -2.484872654939e+02 
8 1  3.112669361278e+02  -5.501293545092e+01   1.433850039282e+02 
8
Step 10000
1 1  2.808153407329e+02  -1.078504019018e+02  -1.121135515307e+02 
2 1  1.107788787223e+02  -5.580860298753e+02   3.456642254137e+02 
3 1 -3.648377672655e+01   4.974526238595e+01   4.911224307018e+01 
4 1  6.519269230522e+01  -3.787673731596e+02   1.200345952911e+02 
5 1  2.901237797475e+02   2.038074783015e+02   1.336049470777e+02 
6 1  3.687694978319e+02  -1.145471774479e+02  -1.194987215942e+02 
7 1  1.396016137375e+02  -1.460188248041e+02  -1.998446461110e+02 
8 1  2.267437290941e+02  -3.674861497343e+01  -1.165821336054e+02 
8
Step 11000
1 1  2.741632320310e+02  -2.863744069432e+01   3.416018416993e+02 
2 1  1.751044285877e+02  -2.586454849132e+02   6.291366396768e+01 
3 1  1.226454415735e+02  -2.457070826929e+02  -2.979215476789e+02 
4 1 -3.066324617178e+02   8.803914755801e+01  -2.560676345544e+02 
5 1  1.119507972529e+02  -2.389613475063e+02   5.611676027801e+02 
6 1  4.422388478753e+02  -3.444307728226e+02   2.953248891409e+02 
7 1  4.800712730031e+02  -2.899946430776e+02   2.238979321067e+01 
8 1  4.584751275338e+01   1.981812922071e+02  -2.477810423165e+02 
8
Step 12000
1 1 -3.305505513718e+01   1.124002417027e+02   4.274764026622e+02 
2 1 -1.007099018758e+02   3.208954656351e+02  -2.162690966029e+02 
3 1  1.664454279242e+02  -1.149956666648e+02  -4.797322526954e+02 
4 1 -3.647572173883e+02   4.093316651462e+02  -7.251740358562e+01 
5 1 -1.722185662819e+02  -1.856126120817e+02   3.257467044603e+02 
6 1 -1.563373478828e+01  -9.355494495326e+01   2.411264069144e+02 
7 1  4.690549125850e+02  -2.775966031633e+02   9.051523011476e+01 
8 1 -1.175255445169e+02   1.429093501961e+02  -1.593017693550e+02 
8
Step 13000
1 1 -3.357856225664e+02   2.522302310876e+02   7.312897188803e+01 
2 1 -3.388529076402e+02   4.589016110471e+02  -3.094322326807e+02 
3 1  5.967631600369e+01   2.506177564043e+02  -1.424635974036e+02 
4 1  1.142213094432e+01   2.912217478621e+02   4.608313371899e+02 
5 1 -2.182897291610e+02   1.337301227937e+02  -2.246395602230e+02 
6 1 -4.165104593979e+02   3.374988559586e+02  -1.282457735824e+02 
7 1  1.178981557833e+02  -2.343020025096e+02  -9.985655161477e+01 
8 1 -2.097417221237e+02  -2.438165929296e+02   1.644946873870e+01 
8
Step 14000
1 1 -2.458771828573e+02   2.945048413401e+02  -2.814859035185e+02 
2 1 -1.891498697783e+02  -3.114921776005e+00  -2.394014227690e+02 
3 1 -5.430336467487e+01   3.405495946884e+02   4.399139227394e+02 
4 1  4.155076821587e+02  -9.152115846948e+01   5.802627041518e+02 
5 1 -9.086684201133e+00   1.277269524616e+02  -4.052466033847e+02 
6 1 -2.579707834293e+02   4.568270841425e+02  -2.875020085213e+02 
7 1 -2.565377611401e+02  -1.531850252842e+02  -2.736958616896e+02 
8 1 -2.077001555721e+02  -4.389258020420e+02   9.485114097733e+01 
8
Step 15000
1 1  1.829868043803e+02   1.509274880251e+02  -2.304889492465e+02 
2 1  1.728389766283e+02  -4.816296750498e+02  -1.139139057351e+02 
3 1 -9.525571006744e+01   4.538474593897e+01   6.254064443071e+02 
4 1  3.579234917030e+02  -3.229614440078e+02   7.774196221025e+01 
5 1  1.644844417436e+02  -2.471022237850e+02  -1.228207533103e+02 
6 1  2.261394407503e+02   1.649070237380e+02  -6.290949866190e+01 
7 1 -3.706378424647e+02   4.622800350339e+01  -1.260781399921e+02 
8 1 -8.810486271524e+01  -1.173854799361e+02   5.315197675132e+01 
8
Step 16000
1 1  4.561321742109e+02  -1.463561337821e+02   1.054514335556e+02 
2 1  2.895491990087e+02  -4.080117994775e+02   1.096532290269e+01 
3 1 -1.385545696211e+02  -2.192145550374e+02   1.978558738730e+02 
4 1 -1.094427993447e+02  -1.964827378734e+02  -3.965603632985e+02 
5 1  1.066901739243e+02  -4.152586123180e+02   9.509665626367e+01 
6 1  3.785899081917e+02  -1.727956825369e+02   1.948362947907e+02 
7 1 -2.297073754909e+02   2.640382270621e+02   2.492549170465e+02 
8 1  1.062699445629e+02   3.191340463362e+02   1.830966342593e+01 
8
Step 17000
1 1  2.371029991164e+02  -4.055041018368e+02   2.687566519655e+02 
2 1  6.568320285657e+01   6.974443293962e+01   1.093705859890e+02 
3 1 -2.295699365927e+02  -1.350602331439e+02  -3.627882983158e+02 
4 1 -4.278072395896e+02   1.065934951214e+02  -2.770252379963e+02 
5 1 -5.368270918930e+01  -3.224743297573e+01  -5.002014257756e+01 
6 1 -2.415592904776e+00  -2.242535681605e+02   1.686818543777e+02 
7 1 -2.483631766870e+01   2.493222873477e+02   4.389392885058e+02 
8 1  2.270951002778e+02   2.710565316164e+02   4.794309752899e+01 
8
Step 18000
1 1 -2.381077659203e+02  -3.955095599577e+02   5.705065104157e+01 
2 1 -1.218783271976e+02   3.410100143404e+02   1.061176966350e+02 
3 1 -2.449272426088e+02   9.161382770867e+01  -4.581336451206e+02 
4 1 -2.050835239901e+02   2.506275691381e+02   1.393762862862e+02 
5 1 -8.781280638138e+01   4.864565943968e+02  -2.125536100210e+02 
6 1 -4.055148433827e+02  -5.909782714309e+01  -4.191849729761e+00 
7 1  1.009433964549e+02  -4.004513049876e+01   2.104581131556e+02 
8 1  1.279972631356e+02  -2.155567212848e+02   4.013511350484e+01 
8
Step 19000
1 1 -4.520240505461e+02  -7.770864900310e+01  -2.393666263201e+02 
2 1  1.182244485807e+01   1.531754175137e+02  -3.347612844249e+01 
3 1 -4.672318679071e+01   6.925892283845e+01  -7.136757910421e+01 
4 1  2.797359947721e+02   9.680255220715e+01   1.530782729511e+02 
5 1  1.297773226887e+01   4.964964472816e+02   2.001386262099e+01 
6 1 -2.880955230571e+02   1.669949621430e+01  -3.114811318943e+00 
7 1  1.337218916310e+02  -2.653356529825e+02  -1.853529644147e+02 
8 1 -1.454955553294e+02  -4.612506980804e+02  -8.692790121969e+01 
8
Step 20000
1 1 -2.212141873133e+02   2.927032608579e+02  -2.388712528589e+02 
2 1  2.359207491028e+02  -1.015722377356e+02  -1.670924068735e+02 
3 1  2.689105926439e+02  -1.878843068289e+02   2.700802036301e+02 
4 1  3.953382267550e+02  -1.771032103132e+02  -3.130965901860e+02 
5 1  5.645667367750e+01  -2.413145132701e+01   4.362084849187e+02 
6 1  2.098783867104e+02  -1.237375461039e+02   1.667649806673e+02 
7 1  1.030915656794e+02  -7.711919477152e+01  -3.051100009115e+02 
8 1 -3.237125252653e+02  -5.751023142200e+01  -2.085823931992e+02 
8
Step 21000
1 1  1.391920443845e+02   3.684331163220e+02   3.244711052899e+01 
2 1  1.395672171701e+02   9.471529414450e+00  -7.135782685664e+01 
3 1  4.111287260074e+02  -2.781628335013e+02   1.795624419154e+02 
4 1 -5.732986512677e+01  -2.769062348155e+02  -5.907932749811e+02 
5 1 -4.871677826058e+01  -4.608011625333e+02   4.360074693967e+02 
6 1  4.567661516305e+02  -2.973644118038e+02   1.808496946049e+02 
7 1  2.143773629819e+01   3.859881294311e+02  -5.058869914280e+01 
8 1 -1.589852988221e+02   5.406656768094e+02  -1.143199790833e+02 
8
Step 22000
1 1  2.380545010270e+02   5.536184729242e+01   1.915747222698e+02 
2 1 -2.429249007207e+02   3.248497106014e+02   2.589855850809e+02 
3 1  2.202407226933e+02  -5.528314806870e+00  -1.483787712788e+02 
4 1 -5.568153342901e+02  -8.295025730063e+01  -2.068062063845e+02 
5 1 -1.513287889378e+02  -3.471395548271e+02  -1.114094118082e+02 
6 1  1.469750682981e+02  -2.640138895772e+02  -1.066465088299e+02 
7 1 -6.904394607849e+01   5.592714707769e+02   2.134238504983e+02 
8 1  2.657628368800e+02   5.459960884973e+02   1.802697023443e+02 
8
Step 23000
1 1  5.672101750547e+01  -3.288931188952e+02   1.873547895276e+01 
2 1 -4.167321524756e+02   2.947893406912e+02   5.036142165891e+02 
3 1 -1.046288569159e+02   2.966582471156e+02  -2.415217710403e+02 
4 1 -4.695825875144e+02   2.236360511150e+02   4.071799230197e+02 
5 1 -6.844425892961e+01   6.502122550125e+01  -5.746559161587e+02 
6 1 -3.013866013858e+02  -9.222075158085e+00  -3.938283588248e+02 
7 1 -8.077912802812e+01   1.260697226678e+02   1.163597390603e+02 
8 1  5.309575439055e+02  -1.096344411156e+02   3.663182271265e+02 
8
Step 24000
1 1 -1.230133214424e+02  -3.436641489098e+02  -2.351674004563e+02 
2 1 -1.065670846564e+02  -2.208618240220e+02   3.419637009483e+02 
3 1 -2.230656730301e+02   2.206322775117e+02   1.830869020158e+01 
4 1  1.543963228067e+02   3.415793018272e+02   4.895717304759e+02 
5 1  1.390455818135e+02   2.050399871900e+02  -3.441255217273e+02 
6 1 -3.135993395936e+02   2.696410884874e+02  -3.122605198384e+02 
7 1  1.719409159738e+01  -5.263931220232e+02  -2.304418717776e+02 
8 1  2.976654654058e+02  -6.213201877719e+02   1.915414329617e+02 
8
Step 25000
1 1 -1.210074801927e+02   9.169368460746e+01  -1.728254914364e+02 
2 1  3.052977437177e+02  -6.581074557682e+02  -1.338121075281e+02 
3 1 -4.602744303510e+01  -1.234389227684e+02   2.729709544720e+02 
4 1  6.077343053645e+02   1.565542998967e+02   1.445752550493e+01 
5 1  2.254291391464e+02  -3.129408018803e+01   3.243717812004e+02 
6 1  8.175286942041e+01   3.820692215234e+02   5.820564998156e+01 
7 1  1.171526711834e+02  -7.006280904109e+02  -3.566555506362e+02 
8 1 -2.809494117886e+02  -3.216701846874e+02  -1.898448423614e+02 
8
Step 26000
1 1 -1.405180374515e+01   5.477531673099e+02   2.054628418017e+02 
2 1  2.606258560458e+02  -4.389921007215e+02  -4.761499969421e+02 
3 1  1.677480178218e+02  -2.334686686943e+02   1.952769553947e+02 
4 1  4.014330221935e+02  -1.469411890287e+02  -2.561848619700e+02 
5 1  8.441988290432e+01  -1.763324257125e+02   5.758673339753e+02 
6 1  3.089141011567e+02   2.972589039038e+02   2.743133415385e+02 
7 1  7.776624822891e+01  -2.212742634406e+02  -4.358412123611e+01 
8 1 -6.604814895683e+02   4.193826356724e+02  -3.619489931739e+02 
8
Step 27000
1 1  9.049488634138e+01   5.021052547762e+02   4.616765624792e+02 
2 1 -1.781562130062e+02   2.243889708861e+02  -3.929878715586e+02 
3 1  1.329382318083e+02   6.678689064469e+01  -8.999450598611e+01 
4 1 -1.215072283900e+02  -2.788043164133e+02   1.348415159780e+02 
5 1 -1.044702443728e+02   9.319105321241e+01   5.765428385861e+01 
6 1  4.545144866874e+01   1.174328409075e+02   1.196810581331e+02 
7 1 -7.773830894234e+01   3.413460927670e+02   3.520449199506e+02 
8 1 -4.599431385193e+02   6.341911683932e+02  -1.500901506494e+02 
8
Step 28000
1 1  2.249395423871e+02  -6.469074199345e+01   2.777292787021e+02 
2 1 -3.647183056628e+02   5.535518045128e+02  -9.647726891443e+01 
3 1 -1.163562758340e+02   3.217608828338e+02  -2.115716477734e+02 
4 1 -2.706797600277e+02  -1.385520512844e+02   6.279113362782e+02 
5 1 -1.258629205107e+02   4.395574756085e+02  -5.867114484808e+02 
6 1 -3.231115645142e+02  -2.733046352982e+01  -1.147539647233e+02 
7 1 -1.546363153253e+02   3.847961374192e+02   3.360358300397e+02 
8 1  1.167623751879e+02   4.183565552419e+01   1.521942971337e+02 
8
Step 29000
1 1  3.781154764537e+02  -6.181114906632e+02  -1.414163350658e+02 
2 1  2.235170899394e+01   2.255634459378e+02   2.182387371651e+01 
3 1 -3.032745514719e+02   8.285647583472e+01  -6.000129544817e+01 
4 1  4.699007710690e+01   1.113818499146e+02   4.146973884865e+02 
5 1 -2.315973901729e+01   3.234449260718e+02  -5.571730833315e+02 
6 1 -2.523003431876e+02  -7.325582323177e+01  -7.863515201332e+01 
7 1 -3.435959634076e+01  -6.094107857387e+00  -7.048400177752e+01 
8 1  5.307533533690e+02  -6.002003101697e+02   1.772934881983e+02 
8
Step 30000
1 1  3.253406310837e+02  -6.116865400140e+02  -3.285719241596e+02 
2 1  4.819345380899e+02  -2.225260954034e+02  -9.121697296126e+01 
3 1 -2.594414217890e+02  -3.796049940880e+02   1.083372830008e+02 
4 1  2.549284409070e+02   2.204804919769e+02  -3.724535870098e+02 
5 1 -2.413973116286e+00  -2.065287410225e+02   8.889344924162e+01 
6 1  1.979450538786e+02  -5.537442749939e+01   1.424208749012e+02 
7 1  1.416493804525e+02  -2.613497261841e+02  -3.360870898758e+02 
8 1  4.702821591415e+02  -5.241376534711e+02  -4.390023659508e+01 
8
Step 31000
1 1 -1.052615581532e+02  -6.536847815100e+01  -1.495532968164e+02 
2 1  3.634573176438e+02  -1.720613235039e+02  -1.293620973861e+02 
3 1 -8.123814404906e+01  -3.761503178836e+02   5.898916733332e+01 
4 1 -2.476287628059e+01   9.078880636263e+01  -7.819511972965e+02 
5 1 -9.043811434069e+01  -5.286565965280e+02   5.741755449964e+02 
6 1  4.425627347107e+02  -8.260077484901e+01   1.933847575559e+02 
7 1  1.341560080637e+02  -1.023826934923e+02  -1.181970346007e+02 
8 1  1.081946944513e+02   4.792641332387e+01  -1.610918121800e+02 
8
Step 32000
1 1 -6.418148492615e+02   4.761731190019e+02   6.555718124962e+01 
2 1 -1.977206691449e+02   2.097159887349e+02   8.168301548672e+01 
3 1  6.039210039912e+01   2.116257426785e+02  -1.069360788594e+02 
4 1 -4.176390891811e+02  -1.503282150998e+02  -3.610341162242e+02 
5 1 -8.042131616816e+01  -2.796021660725e+02   4.341290540664e+02 
6 1  1.722742944099e+02  -2.151611714113e+02   3.955178969176e+00 
7 1 -6.823432044682e+01   1.800115545894e+02   2.712064317828e+02 
8 1 -1.907510421963e+02   3.166552853852e+02  -2.192780719080e+01 
8
Step 33000
1 1 -7.424981019098e+02   5.398516856638e+02   6.412326103517e+00 
2 1 -4.591721586475e+02   2.629294988889e+02   3.185648630557e+02 
3 1  1.361804907308e+02   6.752173948140e+02  -1.310462913105e+02 
4 1 -3.613307851472e+02  -2.917411642362e+02   2.457874713991e+02 
5 1  1.219501058739e+02   1.777499330674e+02  -6.043479497546e+00 
6 1 -2.690789403151e+02  -3.492314365498e+02  -1.282070085228e+02 
7 1 -2.119002514174e+02   2.370895056328e+02   2.927194812385e+02 
8 1 -2.664000421043e+02   6.451414621554e+01   1.310611373270e+02 
8
Step 34000
1 1 -2.401595358481e+02   1.587644716438e+02  -2.170924492523e+02 
2 1 -1.093768812779e+02  -1.747015606331e+02   3.036851839063e+02 
3 1  2.125614739080e+02   3.624947668794e+02   3.718799330907e+01 
4 1  8.131036037819e+01  -2.181597246783e+02   2.329102623740e+02 
5 1  2.759730273526e+02   2.692340431024e+02  -2.112301782364e+02 
6 1 -3.898010230434e+02  -2.974909248318e+02  -1.914325288222e+01 
7 1 -9.984344143477e+01   1.173833550782e+02  -9.194898437391e+01 
8 1 -1.929437695297e+02  -1.442765884211e+02   5.641385841986e+01 
8
Step 35000
1 1  3.754370744329e+02  -2.649025490445e+02  -2.604197373497e+02 
2 1  3.145284902564e+02  -5.152344080036e+02   1.259295251439e+02 
3 1  2.820038300102e+02  -4.449868864858e+02   1.963521598895e+02 
4 1  3.325079330623e+02   1.292049421058e+01  -2.690973521516e+02 
5 1  1.032051523833e+02  -3.463614928474e+01  -1.235077795734e+02 
6 1 -1.644718996569e+02  -3.367821827494e+01   1.192310246428e+02 
7 1  1.468868307497e+02   6.707722061306e+01  -3.714404838260e+02 
8 1 -7.509630261059e+01   9.996181660919e+01  -1.018756376271e+02 
8
Step 36000
1 1  5.236033058003e+02  -4.195790203352e+02  -2.210585784506e+00 
2 1  2.207864841789e+02  -2.469927740693e+02   6.074955902478e+01 
3 1  2.281291790899e+02  -8.654756224122e+02   1.698072357491e+02 
4 1  1.196925671727e+02   2.501643691143e+02  -4.596558347004e+02 
5 1 -2.967040514812e+02  -2.514735138267e+02  -5.223927438763e+01 
6 1  8.376817548118e+01   2.526667041520e+02   2.226193813513e+01 
7 1  2.434382628126e+02   8.404192380385e+01  -1.740153503402e+02 
8 1  6.157079383394e+01   4.350404349958e+02  -2.886017723538e+01 
8
Step 37000
1 1  1.664610702275e+02  -2.655716046604e+02   2.967598994200e+02 
2 1 -2.355637337908e+02   3.424114615148e+02   1.313424066476e+02 
3 1  1.171715022545e+01  -4.179616673344e+02  -6.277993415850e+00 
4 1 -1.931601277838e+02   3.333555179100e+02   2.504000346347e+01 
5 1 -4.634812559788e+02  -4.935839985649e+01  -1.290201697822e+02 
6 1  1.544494381881e+02   3.346382422834e+02  -2.138272334490e+02 
7 1  6.967022636749e+01  -3.861984632781e+01   2.441465731034e+02 
8 1  1.584002989286e+02   2.768174375247e+02   2.639957461489e+02 
8
Step 38000
1 1 -1.618758795293e+02   2.816901851490e+01   3.223182440494e+02 
2 1 -3.804603434006e+02   5.152707457107e+02   5.427175839337e+01 
3 1 -2.101032283028e+02   3.927299848340e+02  -1.575796204651e+02 
4 1 -1.390475343177e+02   2.089433033491e+02   6.261250206967e+02 
5 1 -1.263159479875e+02   3.135275898412e+02  -1.570228380025e+02 
6 1  1.502054221620e+02   2.168464081610e+02  -2.522723663491e+02 
7 1 -1.885648272512e+02  -3.073510307328e+02   3.215363753513e+02 
8 1  1.087367392188e+02  -2.775995548575e+02   3.679591220193e+02 
8
Step 39000
1 1 -5.320760303243e+01   2.677548101057e+02   9.672524022711e+01 
2 1  2.083641487762e+01   6.862006254785e+01  -2.956139710637e+02 
3 1 -2.504927936463e+02   7.030204571332e+02  -1.768757667847e+02 
4 1  1.961341789560e+02  -2.985097365607e+01   6.383285079617e+02 
5 1  4.162498303676e+02   3.474282161912e+02   1.236294230888e+01 
6 1  1.929821679379e+02   1.009189034302e+02  -4.044911189281e+00 
7 1 -2.613932013806e+02  -4.130705832350e+02  -5.405340809288e+01 
8 1 -8.329256042236e+01  -5.232512351522e+02   9.075152890753e+00 
8
Step 40000
1 1  2.817294647551e+02   3.148393377049e+02  -6.664960581571e+01 
2 1  4.209014779331e+02  -3.884051553120e+02  -5.742165783643e+02 
3 1 -1.273827438077e+02   2.862599376687e+02  -9.676851987260e+01 
4 1  3.180071438933e+02  -1.944823688161e+02   1.309081993572e+02 
5 1  5.864950064611e+02  -1.438602690331e+01   1.935491055092e+02 
6 1  1.870121527953e+02   1.107805573130e+02   2.191711615095e+02 
7 1 -8.075153908583e+01  -1.486419156724e+02  -3.718512676006e+02 
8 1 -2.128490435853e+02  -1.067091404291e+02  -4.939140029244e+02 
8
Step 41000
1 1  3.357981999541e+02   1.421928493816e+02   8.665152407515e+00 
2 1  2.626373032216e+02  -2.619513294535e+02  -3.814539107260e+02 
3 1 -4.013473592517e+01  -2.496954218340e+02  -4.735869805410e+00 
4 1  4.912026438416e+01  -1.697900689382e+02  -2.286292265023e+02 
5 1  2.099834099569e+02  -3.320784828238e+02   1.368752308518e+02 
6 1 -5.539051651487e+00   1.324233711851e+02   1.381522184367e+02 
7 1  1.757303489697e+02   2.260870865228e+02  -1.839882838499e+02 
8 1 -8.495484146103e+01   4.367830664092e+02  -5.578132812775e+02 
8
Step 42000
1 1 -8.420653908773e+00  -1.275897854508e+02   1.363556344875e+02 
2 1 -2.404405887866e+02   2.343612248366e+02   1.462272880584e+02 
3 1 -9.473028963728e+01  -2.907625886497e+02   6.481597792106e+01 
4 1 -2.241112312689e+02  -3.721621768770e+01  -1.417670524512e+02 
5 1 -3.002147238512e+02  -2.479116717853e+02  -7.787307265292e+01 
6 1 -2.811477814582e+02  -4.890453330436e+00  -1.002226169245e+02 
7 1  2.911101236969e+02   2.861716409829e+02   2.777116772011e+02 
8 1  2.163709830027e+02   3.840518498772e+02  -8.075943306491e+01 
8
Step 43000
1 1 -3.723691568191e+02  -2.743724336648e+02   4.570280365036e+01 
2 1 -4.243079679203e+02   4.159940693037e+02   4.477586376841e+02 
3 1 -1.601169609854e+02   7.533635875981e+01   1.250558287933e+02 
4 1 -1.250266179650e+02   2.059631161037e+01   1.575279889861e+01 
5 1 -4.541682924823e+02   9.271162065787e+01  -1.453294590829e+02 
6 1 -3.574322183390e+02  -2.603137166964e+02  -1.416126590889e+02 
7 1  1.880945261960e+02   9.747951190520e+00   4.069811461317e+02 
8 1  3.772661257098e+02  -2.285360952580e+02   4.151433048872e+02 
8
Step 44000
1 1 -3.938245753650e+02  -1.441380563367e+02  -2.332323304997e+02 
2 1 -6.790760897353e+01   4.088855555481e+01   2.241012161048e+02 
3 1 -4.492919985220e+01   2.869110484524e+02   1.620817850475e+02 
4 1  1.735329407847e+02  -7.301793982676e+01  -1.325938740420e+02 
5 1 -1.894771602418e+02   2.705574220062e+02   3.528328251501e+01 
6 1 -1.183883623192e+02  -3.848404961710e+02   8.495571017800e+01 
7 1 -5.677147779104e+01  -1.729227996808e+02   8.734052168272e+00 
8 1  1.904403994939e+02  -6.530758583307e+02   3.962763301350e+02 
8
Step 45000
1 1 -1.554893727960e+02   1.576357780735e+02  -3.832285239752e+02 
2 1  3.280430198491e+02  -3.870072001826e+02  -1.528136528812e+02 
3 1  2.264518649809e+02   5.915457196082e+01   1.212829723570e+02 
4 1  1.788829580329e+02  -1.783495582287e+02  -3.781904327206e+02 
5 1  1.331207834052e+02   1.147545826031e+02   2.144658488749e+02 
6 1  1.977448537652e+02  -2.267598484402e+02   2.674343118077e+02 
7 1 -2.758973283591e+02   4.177863240940e+01  -4.236642468310e+02 
8 1 -1.803148516971e+02  -3.827985600469e+02  -3.248217850331e+01 
8
Step 46000
1 1  2.683932057102e+01   3.200716981847e+02  -2.001159065795e+02 
2 1  2.656006310435e+02  -3.310068977613e+02  -1.403924480463e+02 
3 1  4.041349042169e+02  -3.005805804673e+02  -2.159324746545e+01 
4 1 -2.089523352125e+02  -9.135968372193e+01  -2.862659338978e+02 
5 1  1.999971506344e+02  -1.412279629769e+02   1.544395821949e+02 
6 1  2.715680310799e+02   6.852667185610e+01   1.507020625779e+02 
7 1 -3.126270359318e+02   3.819949164224e+02  -3.444447747089e+02 
8 1 -3.772369794840e+02   2.382061572099e+02  -2.944582361025e+02 
8
Step 47000
1 1  5.958160438024e+01   1.307219077640e+02   1.405723089172e+02 
2 1 -8.282395396968e+01   7.520208730537e+01   2.385043724134e+02 
3 1  2.835387710939e+02  -3.403284923914e+02  -1.877535813282e+02 
4 1 -5.119755761320e+02   1.882201117223e+02   8.403751298282e+01 
5 1  4.075636850024e+01  -2.028424591129e+02  -4.786494517370e+01 
6 1  6.947148532119e+01   2.148759847830e+02  -1.196223118550e+02 
7 1 -1.148306309982e+02   3.390375346744e+02   1.508334683793e+02 
8 1 -2.430831987852e+02   5.146031710930e+02  -8.552000905165e+01 
8
Step 48000
1 1  1.094992773186e+02  -2.663834947048e+02   2.861056865795e+02 
2 1 -1.711939470416e+02   2.569171018495e+02   4.162047891771e+02 
3 1 -4.778470630940e+01  -2.691009028318e+01  -2.321853322055e+02 
4 1 -2.958353406664e+02   3.980166594376e+02   2.221418601225e+02 
5 1 -1.102498630110e+02  -6.133070796457e+01  -1.336725695231e+02 
6 1 -1.440775402746e+02   1.091760381200e+02  -2.142430656131e+02 
7 1  1.978940875850e+02  -1.344080200543e+02   4.615200480023e+02 
8 1  2.311699391196e+01   2.772248522561e+02   2.713823934541e+02 
8
Step 49000
1 1  2.415652779106e+02  -4.763883870980e+02   1.156033717105e+02 
2 1  1.096768073797e+02   9.749533247180e+00   5.405652578266e+01 
3 1 -2.904361231306e+02   2.650173279320e+02  -8.413395544532e+01 
4 1  2.448634919742e+02   2.774008161913e+02  -6.323260753120e+01 
5 1 -1.088435610596e+02   6.511621336202e+01  -6.777526409636e+01 
6 1 -1.428318684819e+02  -7.886233216136e+01  -7.088339770227e+01 
7 1  3.871765701841e+02  -5.210282775366e+02   2.467554553270e+02 
8 1  1.330259381963e+02  -2.357702017489e+01   2.942604599463e+02 
8
Step 50000
1 1  2.629855877202e+02  -2.474973560158e+02  -1.460002742245e+02 
2 1  2.744009468868e+02  -2.358089623545e+02  -4.668330011220e+02 
3 1 -2.385031474741e+02   2.266215518911e+02   1.503201359599e+02 
4 1  5.162021536831e+02  -1.169870958421e+02  -3.090036766407e+02 
5 1  1.367566705549e+01   3.035902561270e+01  -4.872471759552e+01 
6 1  2.344071930694e+01  -1.345003232166e+02   5.937857186972e+01 
7 1  2.729306275351e+02  -3.790235418310e+02  -1.867987177911e+02 
8 1  4.282981844883e+01  -1.095979647102e+01  -3.303508980039e+01 
8
Step 51000
1 1  1.828895424011e+01   2.495650521026e+02  -1.974832916917e+02 
2 1 -5.082646291119e+01  -3.252293592716e+01  -5.068841432893e+02 
3 1  1.080955623457e+01  -5.066453633307e+01   2.576031376324e+02 
4 1  2.638453546766e+02  -4.306957819818e+02  -2.817863593478e+01 
5 1  1.603459540020e+02  -8.791966489646e+01  -1.557762093823e+02 
6 1  1.429705993667e+02  -2.528768053265e+01  -2.967048513092e+00 
7 1 -9.600337716142e+01   1.118372597723e+02  -3.210537146575e+02 
8 1 -3.820125845534e+01   1.422646371503e+02  -2.805339281593e+02 
8
Step 52000
1 1 -3.032048586830e+02   5.611096005808e+02   2.301649144831e+01 
2 1 -5.409812137445e+02   4.312831213855e+02   1.777958230604e+01 
3 1  1.560005949436e+02  -2.235727061620e+02   1.070079289881e+02 
4 1 -1.357366540616e+02  -3.655257407348e+02   5.696565645012e+02 
5 1  2.391364717692e+02  -1.067131454301e+02  -1.848337373148e+02 
6 1  1.040434500652e+02   1.311160104000e+02  -1.242161621415e+02 
7 1 -4.405785655241e+02   3.785726776173e+02  -7.518393640493e+01 
8 1  5.419627467051e+01   4.802899812982e+01  -1.597869887279e+02 
8
Step 53000
1 1 -3.127353951881e+02   3.608757066469e+02   2.913921177263e+02 
2 1 -4.977929421283e+02   4.928132567664e+02   4.774344089526e+02 
3 1  3.515307998437e+00  -9.273957696173e+01  -1.974289205791e+02 
4 1 -1.595734200044e+02   1.374996350475e+01   7.429513882080e+02 
5 1  1.466270523481e+02   5.377685248226e+01   5.417537107291e+01 
6 1 -1.725180411431e+01   2.290174117712e+02  -7.756626552210e+01 
7 1 -4.328444755318e+02   1.288417512935e+02   1.403915449091e+02 
8 1  2.103973582596e+02  -2.814814697303e+02   9.694357847292e+01 
8
Step 54000
1 1  3.954394039223e+01  -1.543994559993e+02   3.438116530764e+02 
2 1  1.665553229847e+02  -8.682768746420e+01   2.889662733042e+02 
3 1 -2.587378136031e+02   1.610583369452e+02  -3.495261516973e+02 
4 1  1.579886640805e+02   3.002040862562e+02   2.018600587249e+02 
5 1 -1.339779908515e+02   2.583300672170e+02   3.552323293540e+02 