8
Step 0
1 1  1.469048722732e+02   1.420178156270e+01   1.653688693684e+02 
2 1  1.488039581176e+02  -1.563168928746e+02   6.143700258254e-01 
3 1  2.962052524532e+01   7.912966419224e+01   1.305760075253e+02 
4 1  8.540899450366e+01  -1.103725379480e+02   1.273663727056e+02 
5 1 -1.738812132140e+02   8.849916126937e+01  -8.503468616110e+01 
6 1  2.388945096594e+02   2.745676688807e+02  -2.595804920320e+02 
7 1  3.434598225971e+01   1.207655089455e+02  -1.438029618860e+02 
8 1  5.006328521197e+01   1.619288367544e+02  -5.632881519100e+00 
8
Step 1000
1 1  4.880822164924e+01  -5.614580325256e+01   3.105444798355e+02 
2 1  6.063124825184e+01   7.190286032382e+01  -1.009657323633e+02 
3 1 -1.619293880531e+02   3.683973239198e+02  -7.236990764916e+01 
4 1 -1.721428083890e+02   6.514273602151e+01   2.206949272353e+02 
5 1 -3.715891244610e+02   3.108917094064e+02  -1.595070949722e+02 
6 1  3.736847190149e+02  -8.974551228684e+01  -3.765146077732e+02 
7 1 -5.569606012974e+01   3.890549702745e+02   6.209570407087e+01 
8 1  3.483303783806e+02   1.700247090281e+02  -2.626459665909e+01 
8
Step 2000
1 1 -5.253333724324e+01  -1.205591030180e+02   3.184966271065e+02 
2 1 -2.753151380716e+01   2.356005252424e+02  -1.899841507639e+02 
3 1 -3.143717646120e+02   4.804409789946e+02  -2.428527997970e+02 
4 1 -3.444490137722e+02   2.281572466805e+02   2.793221456782e+02 
5 1 -4.087362560019e+02   4.165772844363e+02  -1.791860339294e+02 
6 1  3.630652835312e+02  -4.322906822135e+02  -3.426947420742e+02 
7 1 -1.165361529539e+02   5.030898720765e+02   2.492132841694e+02 
8 1  4.679920561024e+02   5.354638961070e+01  -2.265178947666e+01 
8
Step 3000
1 1 -1.007657352217e+02  -1.564070945123e+02   1.680134191407e+02 
2 1 -5.057455452007e+01   2.340362743562e+02  -2.266670568364e+02 
3 1 -3.259527176801e+02   3.116797749420e+02  -3.146775312975e+02 
4 1 -3.222482665731e+02   2.791105374844e+02   2.306218205603e+02 
5 1 -2.359340365785e+02   3.061130390912e+02  -1.581476416349e+02 
6 1  1.948200486004e+02  -5.130070730737e+02  -1.215791476165e+02 
7 1 -1.252116325159e+02   3.684407671413e+02   3.068773563023e+02 
8 1  3.281411084500e+02  -1.017951000675e+02   9.188159117011e+00 
8
Step 4000
1 1 -7.583050362459e+01  -1.598934166642e+02  -4.660162634132e+01 
2 1 -1.653279303860e+01   1.107008899055e+02  -1.987709122280e+02 
3 1 -2.423458930017e+02   3.378146051912e+01  -3.050977906733e+02 
4 1 -1.787341192015e+02   2.266759670288e+02   1.101566743816e+02 
5 1  5.922575280507e+00   8.205592491489e+01  -1.415200724041e+02 
6 1 -1.624161027844e+01  -3.728725011435e+02   1.360657567046e+02 
7 1 -1.089439087689e+02   1.196254873282e+02   2.555089396238e+02 
8 1  7.662163443260e+01  -1.905233996054e+02   5.797078202303e+01 
8
Step 5000
1 1  5.921933283483e+00  -1.294951738240e+02  -2.422129610273e+02 
2 1  2.135882264863e+01  -5.299320000153e+01  -1.188219769429e+02 
3 1 -1.180398426178e+02  -2.250709166830e+02  -2.404042822272e+02 
4 1 -2.057440631283e+00   1.157302443252e+02  -4.310459445224e+01 
5 1  2.194003877059e+02  -1.686839103281e+02  -1.325353806240e+02 
6 1 -2.025130077895e+02  -1.253497567150e+02   3.285992767945e+02 
7 1 -9.279144074217e+01  -1.392521701783e+02   1.492764626161e+02 
8 1 -1.713847335126e+02  -1.802436572597e+02   1.097986335807e+02 
8
Step 6000
1 1  9.173360181214e+01  -6.313628152695e+01  -3.364567764331e+02 
2 1  2.965926375749e+01  -1.773680219901e+02   5.354173572886e+00 
3 1  3.587487155083e+01  -3.810138882162e+02  -1.129746617843e+02 
4 1  1.527410836436e+02  -3.560095645892e+01  -2.036721365862e+02 
5 1  3.331553126338e+02  -3.758404992626e+02  -1.008201580072e+02 
6 1 -3.115612603838e+02   1.665171107739e+02   3.938638843241e+02 
7 1 -7.826270436479e+01  -3.388998831448e+02   1.085917129256e+01 
8 1 -3.379535872890e+02  -5.964642322959e+01   1.456162908812e+02 
8
Step 7000
1 1  1.191943933852e+02   2.242319136833e+01  -2.788279799758e+02 
2 1 -8.310265813175e+00  -1.881477925328e+02   1.529224404122e+02 
3 1  1.782195106698e+02  -3.448358360421e+02   5.860774000695e+01 
4 1  2.208324201279e+02  -1.717761700761e+02  -3.094778744569e+02 
5 1  2.897712634663e+02  -4.358583862935e+02  -2.619948579610e+01 
6 1 -3.031528157871e+02   3.643911260882e+02   2.876987134662e+02 
7 1 -6.073430511623e+01  -3.913264962264e+02  -1.097039647759e+02 
8 1 -3.435034632937e+02   1.182521533361e+02   1.385187435091e+02 
8
Step 8000
1 1  7.369621452957e+01   9.886803402745e+01  -1.048802784217e+02 
2 1 -7.970305585686e+01  -9.229856389899e+01   2.699516929843e+02 
3 1  2.530773040877e+02  -1.354634123913e+02   2.184644954079e+02 
4 1  1.781282131905e+02  -2.298826862707e+02  -3.102301999854e+02 
5 1  1.206534152970e+02  -3.104473350881e+02   7.810225958943e+01 
6 1 -1.885620158170e+02   3.683308069320e+02   6.327262943291e+01 
7 1 -3.375666818666e+01  -2.791615074131e+02  -1.626291257089e+02 
8 1 -1.917127012907e+02   2.496678606308e+02   7.676781388259e+01 
8
Step 9000
1 1 -1.566366456366e+01   1.358153743337e+02   1.022254354249e+02 
2 1 -1.413719627799e+02   4.511065904831e+01   2.972074375205e+02 
3 1  2.497341957952e+02   1.192944770441e+02   3.160046376062e+02 
4 1  6.987789919553e+01  -1.955274723806e+02  -2.182313070334e+02 
5 1 -7.134734440274e+01  -7.201787128641e+01   1.740591887372e+02 
6 1 -2.893869671801e+01   2.137046653032e+02  -1.578901342780e+02 
7 1  5.391889088642e+00  -8.255236486197e+01  -1.443557517388e+02 
8 1  2.587532214859e+01   2.702124203261e+02  -2.074789590833e+01 
8
Step 10000
1 1 -1.123104862862e+02   1.197051508656e+02   2.619459063158e+02 
2 1 -1.449819971292e+02   1.624739844036e+02   2.210343610218e+02 
3 1  1.877098666187e+02   3.094550688019e+02   3.272981357473e+02 
4 1 -4.157921857529e+01  -9.308673815817e+01  -7.094346294410e+01 
5 1 -2.013438812339e+02   1.873385837274e+02   2.255930389594e+02 
6 1  1.171104508017e+02  -1.785273794405e+01  -2.933018258744e+02 
7 1  5.935474227957e+01   1.118793998825e+02  -8.465189351325e+01 
8 1  2.202627669330e+02   1.753715547434e+02  -1.283540131452e+02 
8
Step 11000
1 1 -1.654393807095e+02   6.555165068892e+01   3.019133790695e+02 
2 1 -7.023869125454e+01   1.976663957030e+02   6.534807034414e+01 
3 1  8.542709696797e+01   3.564004944642e+02   2.366155770848e+02 
4 1 -1.071199008539e+02   3.646385272295e+01   9.001858092692e+01 
5 1 -2.206805891352e+02   3.752387394495e+02   2.008407699692e+02 
6 1  2.072899144716e+02  -2.271759311668e+02  -2.999354618400e+02 
7 1  1.228057015847e+02   2.359417978234e+02  -1.781736188847e+01 
8 1  3.199286818458e+02   3.776527336515e-01  -2.153282638169e+02 
8
Step 12000
1 1 -1.372115488298e+02   2.914011752904e+00   2.113438735624e+02 
2 1  6.090199392469e+01   1.248909685139e+02  -1.282644699875e+02 
3 1 -3.408127786148e+01   2.386556814276e+02   5.902933521470e+01 
4 1 -1.045953234911e+02   1.389327944547e+02   2.137953258036e+02 
5 1 -1.326546361224e+02   4.140933853370e+02   9.600714199384e+01 
6 1  2.215524756674e+02  -3.123500909723e+02  -1.807798942765e+02 
7 1  1.736359062517e+02   2.472577471570e+02   2.405530232112e+01 
8 1  2.872244944564e+02  -1.758933134459e+02  -2.445709383017e+02 
8
Step 13000
1 1 -4.381527834569e+01  -4.216761601815e+01   4.737118007908e+01 
2 1  1.934295904410e+02  -1.292946118439e+00  -2.954291689614e+02 
3 1 -1.411246300253e+02   1.505012268257e+01  -1.453800500553e+02 
4 1 -4.830820937120e+01   1.758935959583e+02   2.677328271658e+02 
5 1  3.102896622762e+00   2.974737002266e+02  -4.869294346205e+01 
6 1  1.691534631804e+02  -2.477892442026e+02  -7.576362655522e+00 
7 1  1.857352638849e+02   1.598982201931e+02   2.643911259518e+01 
8 1  1.492715825844e+02  -2.734396099940e+02  -1.949740746060e+02 
8
Step 14000
1 1  6.874850324180e+01  -4.723833747416e+01  -1.264462943121e+02 
2 1  2.594461338233e+02  -1.140946718059e+02  -3.590992241414e+02 
3 1 -2.089488714710e+02  -2.152519401480e+02  -3.086224355028e+02 
4 1  2.471138676017e+01   1.402198842032e+02   2.499020516168e+02 
5 1  1.122976782858e+02   7.928096639602e+01  -1.755020043531e+02 
6 1  7.694184343672e+01  -7.584735473019e+01   1.343402168853e+02 
7 1  1.416020280035e+02   2.700118845630e+01  -1.501575927875e+00 
8 1 -3.188523124334e+01  -2.582997129852e+02  -7.220203984803e+01 
8
Step 15000
1 1  1.541932158324e+02  -1.066005490215e+01  -2.407827053259e+02 
2 1  2.091836634506e+02  -1.698885298881e+02  -2.849582191629e+02 
3 1 -2.231558255426e+02  -3.489805445383e+02  -3.787939072827e+02 
4 1  7.298194551739e+01   4.823870608612e+01   1.741258847050e+02 
5 1  1.395744158845e+02  -1.595571382308e+02  -2.299074862066e+02 
6 1 -2.313637351680e+01   1.288838993100e+02   1.915188659855e+02 
7 1  3.666685454091e+01  -9.092513117339e+01  -3.229207447389e+01 
8 1 -1.919732975219e+02  -1.451122451821e+02   9.715028082357e+01 
8
Step 16000
1 1  1.740971127447e+02   3.777041124155e+01  -2.374077069588e+02 
2 1  5.249925575900e+01  -1.390267295551e+02  -1.022973795805e+02 
3 1 -1.891764571128e+02  -3.265817790355e+02  -3.238181181033e+02 
4 1  6.804744390015e+01  -5.820528681164e+01   6.750952626954e+01 
5 1  7.814915968480e+01  -3.236743161943e+02  -1.810339668784e+02 
6 1 -9.862758521771e+01   2.659570321130e+02   1.479560982157e+02 
7 1 -1.107089062091e+02  -1.440390794142e+02  -3.575169962210e+01 
8 1 -2.780577786614e+02   1.009167545791e+01   2.604076195038e+02 
8
Step 17000
1 1  1.174913319347e+02   5.981713313836e+01  -1.345290428157e+02 
2 1 -1.465639265522e+02  -2.999663876826e+01   1.268050935047e+02 
3 1 -1.164468729623e+02  -1.788679435445e+02  -1.508529268957e+02 
4 1  1.709792362566e+01  -1.276182380350e+02  -3.796298891118e+01 
5 1 -2.575093377497e+01  -3.524435017367e+02  -4.865813786350e+01 
6 1 -1.308827756862e+02   2.706145041520e+02   3.659543464474e+01 
7 1 -2.540458889106e+02  -1.160910968663e+02   2.131941680966e+00 
8 1 -2.676670412163e+02   1.340265577744e+02   3.552210996458e+02 
8
Step 18000
1 1  1.829786888639e+01   3.355732348972e+01   3.108346430538e+00 
2 1 -3.107538341430e+02   8.064479879218e+01   3.303079126463e+02 
3 1 -5.660655355756e+00   3.807969294354e+01   8.486033622629e+01 
4 1 -5.139648682684e+01  -1.340036932603e+02  -1.239279472828e+02 
5 1 -1.074117569225e+02  -2.529939578803e+02   1.040376509266e+02 
6 1 -1.216673744546e+02   1.524369260744e+02  -7.471150568407e+01 
7 1 -3.399829690906e+02  -3.310612827014e+01   7.215571276911e+01 
8 1 -1.800439303698e+02   1.803881024346e+02   3.371859778777e+02 
8
Step 19000
1 1 -7.737413293535e+01  -5.603105638740e+01   1.380810247956e+02 
2 1 -3.585411047841e+02   1.317447677210e+02   4.225909765418e+02 
3 1  1.256080474531e+02   2.663489451179e+02   3.020510893514e+02 
4 1 -1.094081253857e+02  -7.740612618154e+01  -1.895295253075e+02 
5 1 -1.246550617955e+02  -7.671152714429e+01   2.092755560903e+02 
6 1 -8.316080967121e+01  -3.698232484182e+01  -1.243703892545e+02 
7 1 -3.253065011383e+02   5.956379892983e+01   1.489519687238e+02 
8 1 -4.912202046397e+01   1.478713762152e+02   1.947637701351e+02 
8
Step 20000
1 1 -1.365561928657e+02  -1.812047321800e+02   2.208575171155e+02 
2 1 -2.420972971389e+02   1.101546675498e+02   3.547134122136e+02 
3 1  2.405094672321e+02   4.060599362675e+02   4.333219574491e+02 
4 1 -1.308532415104e+02   2.568789540401e+01  -2.407304699159e+02 
5 1 -5.534421007743e+01   1.228393884308e+02   2.189913984125e+02 
6 1 -3.407728850216e+01  -2.261888462941e+02  -8.271979268665e+01 
7 1 -1.870829765102e+02   1.200412828909e+02   1.943156895596e+02 
8 1  9.533007799190e+01   6.899447429627e+01  -5.142282329061e+01 
8
Step 21000
1 1 -1.379563767862e+02  -2.682767937566e+02   2.002994132715e+02 
2 1  1.372689150166e+01   2.877924026220e+01   1.293507587458e+02 
3 1  2.984058946220e+02   3.825564339366e+02   4.211955094617e+02 
4 1 -8.873949950527e+01   1.385147751105e+02  -2.651667811726e+02 
5 1  7.203533645671e+01   2.670345773789e+02   1.058035674173e+02 
6 1  4.246160043768e-01  -3.232384289597e+02   3.850825731380e+01 
7 1  5.880039050011e+01   1.104974967072e+02   1.639858037252e+02 
8 1  2.203456737313e+02  -6.163762454674e+00  -3.298681320665e+02 
8
Step 22000
1 1 -8.378586535303e+01  -2.397022010190e+02   8.920212485731e+01 
2 1  2.933017450692e+02  -7.978859317079e+01  -1.818386207902e+02 
3 1  2.659857273567e+02   2.150625681374e+02   2.383768822664e+02 
4 1  7.609787421523e+00   1.959510374565e+02  -2.273510412642e+02 
5 1  1.743795186983e+02   2.853724309025e+02  -8.694945691208e+01 
6 1  4.826341696145e+00  -2.645642131751e+02   1.690450015985e+02 
7 1  3.230465439641e+02   2.451490022685e+01   4.316923989867e+01 
8 1  2.788191740454e+02  -2.619724370852e+01  -5.101018527691e+02 
8
Step 23000
1 1 -1.457081377210e+01  -7.264430288106e+01  -4.741182400372e+01 
2 1  4.456959029566e+02  -1.345756361432e+02  -4.204464714749e+02 
3 1  1.433386006046e+02  -2.727900138108e+01  -4.642133305470e+01 
4 1  1.110851345812e+02   1.503959074780e+02  -1.140080765180e+02 
5 1  1.739585914269e+02   1.728511258809e+02  -2.512574746968e+02 
6 1 -1.578124736303e+01  -7.441537686619e+01   2.133051755741e+02 
7 1  4.749071607288e+02  -9.302335887461e+01  -1.238498650769e+02 
8 1  2.473034006381e+02   1.974745721647e+01  -4.814315920637e+02 
8
Step 24000
1 1  2.748353934803e+01   1.734846028885e+02  -1.521005355368e+02 
2 1  3.719387658988e+02  -9.030684479071e+01  -4.559046927726e+02 
3 1 -3.438377445300e+01  -2.629168556104e+02  -2.886279830505e+02 
4 1  1.790752620705e+02   1.403003082233e+01   4.718333231142e+01 
5 1  6.966260108410e+01   8.507998656386e+00  -2.822512122691e+02 
6 1 -3.017817066092e+01   1.417260655753e+02   1.261569033983e+02 
7 1  4.338225674888e+02  -1.682568737580e+02  -2.583691066126e+02 
8 1  1.431826434725e+02   8.474833486821e+01  -2.415099834025e+02 
8
Step 25000
1 1  3.545007636964e+01   3.769741190479e+02  -1.821501345921e+02 
2 1  1.121828248968e+02   1.343415183779e+01  -2.844889551530e+02 
3 1 -1.960117666041e+02  -3.837814804402e+02  -3.864401104238e+02 
4 1  1.862269493070e+02  -1.492614216971e+02   2.140824874163e+02 
5 1 -8.539085350201e+01  -1.250121219967e+02  -1.642794089385e+02 
6 1 -6.173740978868e+00   2.760872385804e+02  -5.373390408409e+01 
7 1  2.182165747386e+02  -1.612180363490e+02  -2.958342086580e+02 
8 1  6.070250203173e+00   1.008694273370e+02   1.008668163235e+02 
8
Step 26000
1 1  2.548305101428e+01   4.370886218332e+02  -1.344698331282e+02 
2 1 -1.929006095277e+02   9.940146952993e+01  -6.548164343397e+00 
3 1 -2.806690682268e+02  -3.498776732877e+02  -3.305119329631e+02 
4 1  1.276247393094e+02  -2.624875386498e+02   3.422816316663e+02 
5 1 -2.028674851780e+02  -1.685227014508e+02   4.236285191842e+01 
6 1  6.048244686584e+01   2.767689331698e+02  -2.324611540121e+02 
7 1 -7.491458885799e+01  -8.002347563431e+01  -2.201368928813e+02 
8 1 -1.216757772324e+02   2.869149576108e+01   3.939709240442e+02 
8
Step 27000
1 1  2.290131289446e+01   3.229541408730e+02  -4.492617177427e+01 
2 1 -3.887629875708e+02   1.248946085999e+02   2.551243832322e+02 
3 1 -2.641107691878e+02  -2.133813915423e+02  -1.737231423351e+02 
4 1  2.462100853163e+01  -2.694248608922e+02   3.747622422265e+02 
5 1 -2.072332823686e+02  -1.188102959340e+02   2.312711755294e+02 
6 1  1.397756291444e+02   1.597079140937e+02  -3.131253380887e+02 
7 1 -3.152071485704e+02   4.018230916509e+01  -6.611528104023e+01 
8 1 -2.052886201214e+02  -1.108834982681e+02   5.086034961958e+02 
8
Step 28000
1 1  4.388924594588e+01   8.248626744467e+01   3.959482615953e+01 
2 1 -3.892644263935e+02   7.631544774381e+01   3.793952023200e+02 
3 1 -1.722260750549e+02  -3.926027963938e+01   5.678873299203e+00 
4 1 -7.676054703722e+01  -1.604605829667e+02   2.939886049989e+02 
5 1 -9.825042326427e+01  -2.551064845964e+01   3.090896493731e+02 
6 1  1.911449522186e+02  -3.536349014656e+00  -2.536297499793e+02 
7 1 -4.051918825728e+02   1.465150150757e+02   9.562763031758e+01 
8 1 -2.285470247057e+02  -2.440499683133e+02   4.081990785430e+02 
8
Step 29000
1 1  7.885471135951e+01  -1.847996814221e+02   9.090925405103e+01 
2 1 -2.126431050560e+02  -2.231297326155e+01   3.277446721015e+02 
3 1 -5.377030395534e+01   1.223036839906e+02   1.328310874548e+02 
4 1 -1.493508091332e+02   1.909721716025e+01   1.401230546833e+02 
5 1  6.348085890835e+01   5.157272324816e+01   2.511365788859e+02 
6 1  1.853724216341e+02  -1.305173215588e+02  -8.693279851897e+01 
7 1 -3.310121555262e+02   1.960627989145e+02   2.050331200647e+02 
8 1 -1.959443898820e+02  -2.980965080782e+02   1.591696868959e+02 
8
Step 30000
1 1  1.030542437656e+02  -3.785404900211e+02   1.053540730471e+02 
2 1  5.603304239716e+01  -1.101755665190e+02   1.405101179335e+02 
3 1  5.796281237949e+01   2.244031990185e+02   1.748888484453e+02 
4 1 -1.838259151349e+02   2.044686863107e+02  -4.370600753764e+01 
5 1  2.021633837911e+02   7.405364923583e+01   8.808454489901e+01 
6 1  1.064256590745e+02  -1.759407866089e+02   1.179526640544e+02 
7 1 -1.363317702260e+02   1.718556003787e+02   2.326584338282e+02 
8 1 -1.190471600827e+02  -2.306743633106e+02  -1.343343606564e+02 
8
Step 31000
1 1  9.044540210135e+01  -4.318238344029e+02   9.017643708145e+01 
2 1  3.021213628513e+02  -1.342437586926e+02  -9.779148602775e+01 
3 1  1.347535533684e+02   2.493785616178e+02   1.407742179828e+02 
4 1 -1.724289258445e+02   3.276446151553e+02  -2.165906599380e+02 
5 1  2.416766276699e+02   3.227281999778e+01  -1.141911550514e+02 
6 1 -3.496161337777e+01  -1.350481278180e+02   2.807484510459e+02 
7 1  1.007249137604e+02   8.409768602247e+01   1.772599641680e+02 
8 1 -1.433066902989e+01  -4.607574776305e+01  -3.573606807096e+02 
8
Step 32000
1 1  2.615208471786e+01  -3.241149321832e+02   5.426268052772e+01 
2 1  4.029664051262e+02  -8.117911817898e+01  -2.813158862727e+02 
3 1  1.595207487746e+02   2.070229648867e+02   7.073943950412e+01 
4 1 -1.118410942568e+02   3.288415243199e+02  -3.270581633148e+02 
5 1  1.500915896785e+02  -4.350701166802e+01  -2.663293075414e+02 
6 1 -1.920605493273e+02  -3.825903928875e+01   3.261646829412e+02 
7 1  2.738723519099e+02  -3.685411357011e+01   6.802661242084e+01 
8 1  9.263236350930e+01   1.880214297817e+02  -4.111227875987e+02 
8
Step 33000
1 1 -7.173666757317e+01  -1.001275130453e+02   1.036489745127e+01 
2 1  2.995856018516e+02   2.288952998476e+01  -3.228022775267e+02 
3 1  1.345819968237e+02   1.127100124646e+02   1.209031132777e+01 
4 1 -1.776978167321e+01   1.947724858465e+02  -3.363958678296e+02 
5 1 -2.763921588019e+01  -1.014519277970e+02  -2.930213599220e+02 
6 1 -2.928837851615e+02   5.387718561850e+01   2.317652663406e+02 
7 1  2.970675913192e+02  -1.407256835832e+02  -3.977634944822e+01 
8 1  1.674009233470e+02   3.565043590764e+02  -2.722207191896e+02 
8
Step 34000
1 1 -1.551515491988e+02   1.314584507015e+02  -3.150128984528e+01 
2 1  5.363070489369e+01   1.197951286249e+02  -2.153196756274e+02 
3 1  9.102952209994e+01  -2.048035459605e+00  -7.593552805013e+00 
4 1  7.810899805329e+01  -1.769207042322e+01  -2.554175344240e+02 
5 1 -1.986813516234e+02  -1.017283920822e+02  -1.925116236713e+02 
6 1 -2.922337325525e+02   8.924122405085e+01   5.263969513247e+01 
7 1  1.713226282811e+02  -1.854957347099e+02  -9.730368898314e+01 
8 1  1.880398354792e+02   3.781092781223e+02  -2.363422060040e+01 
8
Step 35000
1 1 -1.857594895950e+02   2.791947176245e+02  -7.076475797192e+01 
2 1 -2.131874734533e+02   1.483545972433e+02  -2.063619703360e+01 
3 1  5.317925191922e+01  -1.040608383474e+02   1.438822698359e+01 
4 1  1.526180135391e+02  -2.263791641859e+02  -1.261080166634e+02 
5 1 -2.793285068271e+02  -3.438674099476e+01  -2.575911759097e+01 
6 1 -1.928083691227e+02   5.802051103750e+01  -1.307443424852e+02 
7 1 -2.870934570545e+01  -1.614535066424e+02  -9.283767174879e+01 
8 1  1.568518402440e+02   2.493175623045e+02   2.135643410224e+02 
8
Step 36000
1 1 -1.441276378394e+02   3.081015543096e+02  -9.997427363173e+01 
2 1 -3.846851000727e+02   8.473046949686e+01   1.740284715414e+02 
3 1  2.041495327586e+01  -1.772578217927e+02   5.084547745827e+01 
4 1  1.878769914085e+02  -3.593026004205e+02   1.825820067742e+01 
5 1 -2.246352124279e+02   7.622012884899e+01   1.343155696943e+02 
6 1 -2.257619349860e+01  -1.343838095805e+01  -2.492263407652e+02 
7 1 -2.109565496492e+02  -8.341743229047e+01  -4.503957089147e+01 
8 1  8.638657106696e+01   2.178114469108e+01   3.418665400848e+02 
8
Step 37000
1 1 -3.469779593612e+01   2.257333932081e+02  -1.052409414025e+02 
2 1 -3.773875806062e+02  -4.263261996112e+01   2.850438699571e+02 
3 1 -1.905887767103e+01  -2.059405056106e+02   5.933177369720e+01 
4 1  1.673442966333e+02  -3.613654922448e+02   1.498319213156e+02 
5 1 -5.300163065569e+01   1.762029114356e+02   2.225890727211e+02 
6 1  1.636631354912e+02  -7.944700112740e+01  -2.558248571047e+02 
7 1 -2.870329289237e+02   1.800682810573e+01   9.202352302182e+00 
8 1 -3.288128233561e+00  -2.097995588872e+02   3.091072655999e+02 
8
Step 38000
1 1  9.946301275878e+01   8.362528706016e+01  -7.310226255238e+01 
2 1 -1.915798319899e+02  -1.627936559438e+02   2.710171224431e+02 
3 1 -7.193023114890e+01  -1.747715708477e+02   1.236339566618e+01 
4 1  9.193350546865e+01  -2.253527320090e+02   2.416201494249e+02 
5 1  1.505387311100e+02   2.081373064427e+02   2.059029497471e+02 
6 1  2.917335906496e+02  -9.449527767829e+01  -1.540709910093e+02 
7 1 -2.102479153037e+02   1.011086663129e+02   3.013505392270e+01 
8 1 -8.278888199477e+01  -3.393870246641e+02   1.349019377791e+02 
8
Step 39000
1 1  1.941955793121e+02  -4.266214079859e+01   1.396247175219e+00 
2 1  8.114739900291e+01  -2.014597444172e+02   1.500282883951e+02 
3 1 -1.324007641466e+02  -8.784877424634e+01  -7.924450070078e+01 
4 1 -1.276136371151e+01  -5.650365078023e+00   2.795514124165e+02 
5 1  2.823500672646e+02   1.455104101745e+02   1.068285981542e+02 
6 1  3.140758616236e+02  -4.315031165860e+01  -2.058387633190e+00 
7 1 -1.409379980960e+01   1.344999175144e+02  -1.014101744531e+00 
8 1 -1.270262076322e+02  -3.140521951921e+02  -9.261213878204e+01 
8
Step 40000
1 1  2.059207239256e+02  -1.048367825592e+02   9.957883524249e+01 
2 1  3.162686647078e+02  -1.251687104214e+02  -1.954255237173e+01 
3 1 -1.800987205540e+02   3.228643172202e+01  -1.755699645496e+02 
4 1 -1.104991391443e+02   2.163444247369e+02   2.654745383136e+02 
5 1  2.801840185679e+02   5.175019502963e+00  -1.720696746056e+01 
6 1  2.321027490212e+02   5.112019237132e+01   1.264162817513e+02 
7 1  2.107147799845e+02   1.140274657131e+02  -7.096676182611e+01 
8 1 -1.274414627384e+02  -1.585710174298e+02  -2.667692445926e+02 
8
Step 41000
1 1  1.290496810020e+02  -1.009357477418e+02   1.786631053397e+02 
2 1  4.080235018367e+02   4.240042995617e+01  -1.651883807450e+02 
3 1 -1.801520688507e+02   1.508099677824e+02  -2.266141889763e+02 
4 1 -1.660033518913e+02   3.591670890924e+02   2.013928888491e+02 
5 1  1.432653405393e+02  -1.597563286781e+02  -1.057009228492e+02 
6 1  8.020478787406e+01   1.409275119334e+02   1.749856301362e+02 
7 1  3.617276143051e+02   5.490694859754e+01  -1.395980364509e+02 
8 1 -8.929336452109e+01   4.773417746731e+01  -3.132384707053e+02 
8
Step 42000
1 1 -3.814930205938e+00  -6.269336617551e+01   1.965638147974e+02 
2 1  3.152261858788e+02   2.186355241194e+02  -2.327674788550e+02 
3 1 -1.021931541665e+02   2.203667893488e+02  -1.915983673635e+02 
4 1 -1.580094313361e+02   3.609148735896e+02   8.764831293770e+01 
5 1 -6.439242292211e+01  -2.728753798343e+02  -1.179909145363e+02 
6 1 -8.241772979118e+01   1.746665851472e+02   1.259602939258e+02 
7 1  3.576074404747e+02  -1.519837401502e+01  -1.559921250360e+02 
8 1 -2.888680989402e+01   2.006130362821e+02  -2.182097191357e+02 
8
Step 43000
1 1 -1.287988506173e+02  -3.422921077355e+01   1.330494682418e+02 
2 1  9.448304954931e+01   3.010285856048e+02  -2.152925787509e+02 
3 1  4.200476021750e+01   2.043608093216e+02  -7.136860772009e+01 
4 1 -9.576325569262e+01   2.245605096611e+02  -5.779930215689e+01 
5 1 -2.367649935302e+02  -2.756508744055e+02  -6.365647560298e+01 
6 1 -1.928564340187e+02   1.268926560478e+02   1.506176363561e+01 
7 1  1.886927858544e+02  -6.238279385379e+01  -9.177954567710e+01 
8 1  3.150929686261e+01   2.225686903359e+02  -3.219303427283e+01 
8
Step 44000
1 1 -1.887224148870e+02  -4.137647140338e+01  -4.770025422320e+00 
2 1 -1.504463835988e+02   2.377311708813e+02  -1.378051580272e+02 
3 1  2.010717251090e+02   1.096678922179e+02   9.126931117665e+01 
4 1 -9.893815397380e+00   1.525289311681e+01  -2.086447545985e+02 
5 1 -2.906187823904e+02  -1.711271366592e+02   7.494583093855e+00 
6 1 -2.257868209561e+02   1.670575021320e+01  -9.355159539913e+01 
7 1 -7.558203201103e+01  -7.069490152358e+01   4.161267133839e+01 
8 1  6.923303381734e+01   1.140921614101e+02   1.602427916168e+02 
8
Step 45000
1 1 -1.613772418679e+02  -7.546549916538e+01  -1.765397509217e+02 
2 1 -3.243747217950e+02   4.896883885800e+01  -3.892487382170e+01 
3 1  3.111751052871e+02  -2.937543400967e+01   2.427233510115e+02 
4 1  6.810483266160e+01  -1.971239327939e+02  -3.370151673844e+02 
5 1 -2.084421921355e+02  -2.321451393637e+00   5.860170875943e+01 
6 1 -1.898960804584e+02  -1.125201075872e+02  -1.423350203561e+02 
7 1 -3.391461514422e+02  -4.533896677025e+01   2.037662646959e+02 
8 1  6.859212866533e+01  -5.759372975722e+01   2.741517327642e+02 
8
Step 46000
1 1 -5.751005332890e+01  -1.025392502926e+02  -3.070349171026e+02 
2 1 -3.557708426329e+02  -1.924565383154e+02   4.678732556894e+01 
3 1  3.082330977700e+02  -1.624279195641e+02   3.226501671327e+02 
4 1  1.024719127448e+02  -3.370025890994e+02  -3.905891373626e+02 
5 1 -3.046247674919e+01   1.786285716446e+02   6.057115040242e+01 
6 1 -1.070762154958e+02  -2.087210870834e+02  -9.892627593843e+01 
7 1 -4.942615558346e+02   1.074326889570e+00   3.237331862264e+02 
8 1  3.297591797483e+01  -1.941469655930e+02   2.630891107620e+02 
8
Step 47000
1 1  6.778103550685e+01  -7.644068805808e+01  -3.142300817091e+02 
2 1 -2.362920247892e+02  -3.602370431685e+02   1.027739380189e+02 
3 1  1.583952943812e+02  -2.272651543992e+02   2.831960963254e+02 
4 1  7.966635022193e+01  -3.273371863365e+02  -3.109818587063e+02 
5 1  1.546851209647e+02   2.969105694622e+02  -2.160678491936e+00 
6 1 -1.696330713502e+01  -2.204622626068e+02   1.762670168060e+01 
7 1 -4.461396296499e+02   4.044887610299e+01   3.194306107404e+02 
8 1 -1.241116572482e+01  -2.041078208706e+02   1.446786017089e+02 
8
Step 48000
1 1  1.450866216674e+02   3.567058545433e+00  -1.760150393801e+02 
2 1 -4.562084362454e+01  -3.533783574702e+02   1.333508416398e+02 
3 1 -7.995647521569e+01  -1.799032047765e+02   1.398884619673e+02 
4 1  2.488733014600e+01  -1.766951717135e+02  -1.132796335833e+02 
5 1  2.505909578304e+02   2.859356967365e+02  -8.388358499070e+01 
6 1  4.289894099287e+01  -1.387083477439e+02   1.370578354629e+02 
7 1 -2.135161524548e+02   4.510033413871e+01   1.776441515134e+02 
8 1 -4.736781807009e+01  -6.873458915630e+01  -1.862447412522e+01 
8
Step 49000
1 1  1.391865802180e+02   9.608762176452e+01   4.389756380421e+01 
2 1  1.268193890854e+02  -1.871651252669e+02   1.417192392555e+02 
3 1 -2.937642578548e+02  -5.022006195012e+01  -3.300929401104e+01 
4 1 -2.322851931687e+01   2.725441597051e+01   1.251317078468e+02 
5 1  2.190923048939e+02   1.638888501388e+02  -1.198743716651e+02 
6 1  6.779579093721e+01  -1.315260356567e+01   1.969536100383e+02 
7 1  8.447762364543e+01   1.568764867781e+01  -3.635209853006e+01 
8 1 -5.683330765215e+01   1.383693294567e+02  -1.560663922974e+02 
8
Step 50000
1 1  6.763652357242e+01   1.644343903153e+02   2.587169063808e+02 
2 1  2.195216747442e+02   5.944852040341e+01   1.260444634204e+02 
3 1 -3.932551925217e+02   9.737589776793e+01  -1.781625974151e+02 
4 1 -4.099024551525e+01   2.044375908386e+02   3.274258827204e+02 
5 1  8.908210888177e+01  -4.734454277842e+00  -9.200808578004e+01 
6 1  7.168876168108e+01   1.036271737679e+02   1.668947468639e+02 
7 1  3.401662825844e+02  -3.196775450031e+01  -2.486235569060e+02 
8 1 -2.600706290836e+01   3.041615860890e+02  -2.070277939528e+02 
8
Step 51000
1 1 -2.673593526140e+01   1.757671409294e+02   3.686577687050e+02 
2 1  2.063897179899e+02   2.767316268024e+02   9.112753855820e+01 
3 1 -3.170881330675e+02   1.943547476702e+02  -2.602592596893e+02 
4 1 -1.562404661501e+01   2.859260568849e+02   4.090030126244e+02 
5 1 -7.186129625579e+01  -1.598331599072e+02  -7.023804148128e+00 
6 1  6.968430906380e+01   1.701613981108e+02   5.037637449791e+01 
7 1  4.574426536164e+02  -7.362954504203e+01  -3.751574618481e+02 
8 1  3.191754356530e+01   3.252519408251e+02  -1.609191126617e+02 
8
Step 52000
1 1 -9.527302040679e+01   1.039707671689e+02   3.120915889755e+02 
2 1  1.241090224173e+02   3.506177633033e+02   3.327153358553e+01 
3 1 -9.231536893195e+01   1.924765598127e+02  -2.586547746440e+02 
4 1  4.315412078461e+01   2.278002909904e+02   3.247742861197e+02 
5 1 -1.767221012136e+02  -2.327078973908e+02   9.796000470886e+01 
6 1  7.186489969583e+01   1.641170552920e+02  -9.686594793255e+01 
7 1  3.869000437551e+02  -7.465472314796e+01  -3.523001322323e+02 
8 1  7.727947016996e+01   1.740428213038e+02  -6.686557631946e+01 
8
Step 53000
1 1 -1.109105724952e+02  -5.311324926976e+00   1.248641830178e+02 
2 1  4.317496668360e+01   2.678165202166e+02  -4.619082258729e+01 
3 1  1.610821193384e+02   1.016626684538e+02  -1.838984758301e+02 
4 1  9.224948377752e+01   7.887985296876e+01   1.367184858093e+02 
5 1 -1.857012635273e+02  -2.019778244504e+02   1.654382829513e+02 
6 1  8.025804163828e+01   1.098697906196e+02  -2.046896038155e+02 
7 1  2.030112748002e+02  -3.136882766487e+01  -2.176494115522e+02 
8 1  9.027571428397e+01  -6.502765946023e+01   1.595182127240e+01 
8
Step 54000
1 1 -7.450228353988e+01  -8.712093131710e+01  -1.043200752580e+02 
2 1 -7.482698928495e+00   8.946978002085e+01  -1.312299198763e+02 
3 1  3.491226213394e+02  -4.060557566005e+01  -7.714736808488e+01 
4 1  1.007913654072e+02  -8.356348827775e+01  -6.884189378726e+01 
5 1 -1.153829281480e+02  -9.932600835783e+01   1.632979924356e+02 