8
Step 0
1 1 -3.567806084495e+02   1.250349871688e+02   1.349215040121e+02 
2 1 -3.715941391501e+01   2.035910927754e+02  -2.934454057728e+02 
3 1 -5.894608363078e+00   1.640287187557e+02  -1.356203740973e+02 
4 1  9.980405381862e+01   3.579602250797e+02   4.123904540523e+02 
5 1 -6.056234710672e+01   4.194574330581e+02   8.432933744934e+01 
6 1 -1.761637115772e+02  -2.392440180721e+02  -1.953219266841e+02 
7 1 -2.534551509443e+02  -1.234561750903e+02   2.630611908943e+02 
8 1 -1.563495904539e+02  -4.994924455812e+02  -3.797918227023e+01 
8
Step 1000
1 1 -1.389977479919e+02   5.670665252474e+01  -1.027000388123e+02 
2 1  1.563584649513e+02  -1.050931804776e+02  -3.425124516717e+02 
3 1 -2.183575566933e+02  -4.834157062676e+01  -1.811710455978e+02 
4 1  3.780483562830e+02   2.003768001820e+02   4.205063682128e+02 
5 1  2.182263107316e+02   2.098677603898e+02  -1.380569799735e+02 
6 1 -9.292331497216e+01   9.193130990609e+01   8.398565606341e+01 
7 1 -3.413775112234e+02  -3.419119611547e+01   1.043448407150e+01 
8 1 -2.235231437709e+02  -3.980531581679e+02   8.935020615463e+00 
8
Step 2000
1 1  1.420718090049e+02  -2.701365717628e+01  -2.698652771474e+02 
2 1  2.891722926443e+02  -3.527660334183e+02  -2.883833857595e+02 
3 1 -3.797444038817e+02  -2.190646444044e+02  -1.837323497260e+02 
4 1  4.908203269746e+02  -4.863054645873e+01   3.223332096997e+02 
5 1  3.597011159294e+02  -9.086658157925e+01  -3.291970354413e+02 
6 1  6.389015007738e+01   3.961787883363e+02   2.862980396781e+02 
7 1 -3.053683905894e+02   9.502133740412e+01  -2.230720853348e+02 
8 1 -2.151418929214e+02  -1.195156375131e+02   5.252662126021e+01 
8
Step 3000
1 1  3.507128662027e+02  -1.089627185293e+02  -2.886997776813e+02 
2 1  2.812841290484e+02  -4.075228710239e+02  -1.351384232250e+02 
3 1 -4.151822140945e+02  -2.659477739575e+02  -1.405399421250e+02 
4 1  3.679476659661e+02  -2.700057869821e+02   1.559547888458e+02 
5 1  2.887227530596e+02  -3.499638906477e+02  -4.012862310852e+02 
6 1  2.184792956486e+02   5.154180268843e+02   3.252895131700e+02 
7 1 -1.799738213638e+02   2.245980995686e+02  -3.133192267409e+02 
8 1 -1.186329496068e+02   2.066251877216e+02   9.772979853059e+01 
8
Step 4000
1 1  3.904035788648e+02  -1.718765703695e+02  -1.637655345060e+02 
2 1  1.326143698285e+02  -2.507332282010e+02   6.362161670290e+01 
3 1 -3.013787768073e+02  -1.774228280148e+02  -6.285236196123e+01 
4 1  6.444609465784e+01  -3.550500308496e+02  -2.619920327987e+01 
5 1  5.459892573771e+01  -4.510613012099e+02  -3.171817818525e+02 
6 1  2.872068406157e+02   3.858416570355e+02   2.097511046715e+02 
7 1 -3.260364836805e+01   2.956978805487e+02  -2.172265311417e+02 
8 1  3.087268046289e+01   4.169050371957e+02   1.385713872197e+02 
8
Step 5000
1 1  2.652807134320e+02  -2.046465700292e+02   2.016254486404e+01 
2 1 -7.267201615527e+01   1.060159346575e+01   2.310892029166e+02 
3 1 -8.793770204181e+01  -1.729565990984e+01   2.437203843786e+01 
4 1 -2.668666362021e+02  -2.752604271602e+02  -1.814532206165e+02 
5 1 -2.009765443070e+02  -3.675059422809e+02  -1.217643411041e+02 
6 1  2.316978389289e+02   8.352671257859e+01   3.553096853137e+01 
7 1  7.369690425336e+01   2.702907074391e+02  -1.592853332393e+00 
8 1  1.689622817312e+02   4.208360539080e+02   1.598432541099e+02 
8
Step 6000
1 1  5.488867199749e+01  -2.002333857003e+02   1.653298658918e+02 
2 1 -2.324639782374e+02   2.344907652932e+02   3.113738267968e+02 
3 1  1.437619029091e+02   1.301832903809e+02   9.668948210238e+01 
4 1 -4.793482567261e+02  -8.185779377440e+01  -2.930848373373e+02 
5 1 -3.456390318338e+02  -1.571524220098e+02   9.842889777140e+01 
6 1  7.105174897923e+01  -2.466240130840e+02  -9.322769125644e+01 
7 1  1.150593657714e+02   1.492808893509e+02   2.161658293164e+02 
8 1  2.433678558135e+02   2.414910090174e+02   1.443350285586e+02 
8
Step 7000
1 1 -1.461926842503e+02  -1.501219200781e+02   2.096434401255e+02 
2 1 -2.766723876151e+02   3.208908888837e+02   2.804298436824e+02 
3 1  3.176467973914e+02   2.021543689809e+02   1.352315243176e+02 
4 1 -4.871210732166e+02   1.366087701001e+02  -3.531444877795e+02 
5 1 -3.129235422286e+02   8.650557500213e+01   2.597244087268e+02 
6 1 -1.377926970447e+02  -4.646749921571e+02  -1.181593052964e+02 
7 1  1.021782155407e+02  -3.432429528284e+01   3.299796725786e+02 
8 1  2.286631758643e+02  -2.336740620617e+01   8.060474647149e+01 
8
Step 8000
1 1 -2.627958867025e+02  -5.283876586623e+01   1.440446120902e+02 
2 1 -1.924552647306e+02   2.460888039862e+02   1.546765433539e+02 
3 1  3.802174700027e+02   1.758871580588e+02   1.306564316456e+02 
4 1 -2.893278921554e+02   2.850458553358e+02  -3.501118813550e+02 
5 1 -1.228454508102e+02   2.656191056144e+02   3.056936635383e+02 
6 1 -3.153545374810e+02  -4.806946218604e+02  -4.464250115186e+01 
7 1  6.434820568866e+01  -2.180164082838e+02   2.832545434312e+02 
8 1  1.327446808196e+02  -2.430019612443e+02  -2.346297008647e+01 
8
Step 9000
1 1 -2.669222837104e+02   7.600872048116e+01   1.338117879332e+01 
2 1 -3.210691903895e+01   6.917754955899e+01  -8.973125978282e+00 
3 1  3.214720557255e+02   7.689809410385e+01   9.003231651204e+01 
4 1  2.431312658802e+01   3.021046021553e+02  -2.754373609192e+02 
5 1  1.267483397836e+02   3.174670032758e+02   2.322995203763e+02 
6 1 -3.901257203939e+02  -2.971188959067e+02   6.445994402800e+01 
7 1  3.314076776230e+01  -3.315302614582e+02   9.714392473995e+01 
8 1 -3.015959028359e+00  -3.145560136899e+02  -1.364529253354e+02 
8
Step 10000
1 1 -1.815840584721e+02   2.042698036265e+02  -1.110909460420e+02 
2 1  1.189565424178e+02  -1.086313474969e+02  -1.423861950492e+02 
3 1  1.747060881441e+02  -4.080974577800e+01   3.328325953967e+01 
4 1  3.200641283220e+02   1.866732422937e+02  -1.307840333267e+02 
5 1  3.150894757744e+02   2.398263377341e+02   8.581966122418e+01 
6 1 -3.284035183679e+02  -1.415391213191e+00   1.289385979127e+02 
7 1  2.586123801431e+01  -3.294724326621e+02  -1.434529623576e+02 
8 1 -1.240238904461e+02  -2.143779947833e+02  -2.163250753981e+02 
8
Step 11000
1 1 -5.838809035463e+01   2.894255336333e+02  -1.682951733554e+02 
2 1  1.882468809036e+02  -1.993331269591e+02  -1.962947634686e+02 
3 1 -2.843566813850e+00  -1.243199302174e+02  -1.706419554960e+01 
4 1  4.789661051453e+02  -7.958455104815e+00   6.492881198570e+01 
5 1  3.561646099485e+02   8.279118214836e+01  -6.397064172636e+01 
6 1 -1.438095217198e+02   2.787309638047e+02   9.586059723821e+01 
7 1  3.952212836492e+01  -2.086728381671e+02  -3.317014792281e+02 
8 1 -1.853145226240e+02  -2.653193218911e+00  -2.275879504091e+02 
8
Step 12000
1 1  4.990670652959e+01   2.926548237561e+02  -1.349351177301e+02 
2 1  1.499500677103e+02  -1.693838310284e+02  -1.578038350619e+02 
3 1 -1.508606138196e+02  -1.435557029479e+02  -4.534301703491e+01 
4 1  4.412820144483e+02  -1.966164777560e+02   2.681951534602e+02 
5 1  2.349713651616e+02  -7.602724576708e+01  -1.539376302176e+02 
6 1  1.043465385676e+02   4.262963087830e+02  -3.175195780822e+01 
7 1  5.612588420761e+01  -1.245286722866e+01  -3.829305536235e+02 
8 1 -1.678468301661e+02   2.057600438243e+02  -1.580354548582e+02 
8
Step 13000
1 1  1.122996935410e+02   1.998661748480e+02  -3.514645389589e+01 
2 1  3.772592223723e+01  -5.479138520480e+01  -5.729534073842e+01 
3 1 -2.281663573928e+02  -1.025996071445e+02  -4.976292063478e+01 
4 1  2.323250836210e+02  -2.979784435824e+02   4.172875850810e+02 
5 1  1.501596012019e+01  -1.666005789378e+02  -1.553218569421e+02 
6 1  3.285258138694e+02   3.869573550228e+02  -1.914178859719e+02 
7 1  5.482614169214e+01   1.822897081958e+02  -2.739945906873e+02 
8 1 -8.688506333864e+01   2.971374715580e+02  -2.949706061103e+01 
8
Step 14000
1 1  1.281719585974e+02   3.398165961587e+01   7.557345640306e+01 
2 1 -7.535312981633e+01   6.508966485460e+01   4.637530313785e+01 
3 1 -2.278076226515e+02  -3.336882708917e+01  -4.184432189163e+01 
4 1 -5.125615976119e+01  -2.717236840016e+02   4.561010664536e+02 
5 1 -1.958732065511e+02  -1.596872486398e+02  -8.560493038305e+01 
6 1  4.477256045910e+02   1.934805462134e+02  -2.933373356540e+02 
7 1  2.500663508477e+01   2.991005218982e+02  -5.493399258544e+01 
8 1  1.608928417516e+01   2.199132517597e+02   1.092925889184e+02 
8
Step 15000
1 1  1.167844799551e+02  -1.506332606240e+02   1.414327034485e+02 
2 1 -1.207017666231e+02   1.177493407557e+02   9.864922209214e+01 
3 1 -1.729179738538e+02   2.629528418311e+01  -3.724738746104e+01 
4 1 -2.906864047168e+02  -1.337336705648e+02   3.595700103982e+02 
5 1 -3.027365655144e+02  -7.695105111667e+01   5.341750098862e+00 
6 1  4.190007173491e+02  -5.657293509540e+01  -2.697554829502e+02 
7 1 -2.736540506232e+01   2.965325377177e+02   1.778762384834e+02 
8 1  9.459577470746e+01   1.092976465120e+01   2.045282875879e+02 
8
Step 16000
1 1  9.825054134733e+01  -2.878162857280e+02   1.342449468670e+02 
2 1 -7.322464663023e+01   7.793104261753e+01   7.684438740215e+01 
3 1 -9.921210472466e+01   5.419001938635e+01  -4.480722007461e+01 
4 1 -3.978597965088e+02   5.497378853367e+01   1.481031024678e+02 
5 1 -2.683463841157e+02   2.513163974447e+01   6.421522879625e+01 
6 1  2.516672703708e+02  -2.503174677474e+02  -1.116931770812e+02 
7 1 -8.263339046029e+01   1.843052616914e+02   3.277222184732e+02 
8 1  1.180725104038e+02  -2.249022830679e+02   2.206937115359e+02 
8
Step 17000
1 1  7.909333350477e+01  -3.267647060971e+02   6.533231704765e+01 
2 1  3.573861170477e+01  -2.066419495368e+01  -1.042224527346e+00 
3 1 -3.565783498652e+01   5.243104493703e+01  -5.993411240986e+01 
4 1 -3.485042720728e+02   2.170051988227e+02  -1.152577487980e+02 
5 1 -1.254489450216e+02   8.693037024189e+01   6.199374936736e+01 
6 1  2.473005295509e+00  -3.117903415081e+02   1.232138307902e+02 
7 1 -1.174913770801e+02   1.648962724061e+01   3.400484189167e+02 
8 1  8.365649342289e+01  -3.676675447795e+02   1.555698313832e+02 
8
Step 18000
1 1  5.045041735467e+01  -2.534512859433e+02  -2.528153682323e+01 
2 1  1.367508390101e+02  -1.076141242356e+02  -8.719647650500e+01 
3 1  8.125744176348e+00   3.942656425668e+01  -6.607384825677e+01 
4 1 -1.827556200221e+02   2.913005624044e+02  -3.457390036002e+02 
5 1  4.692708849917e+01   7.612285099195e+01   6.794578666976e+00 
6 1 -2.461078741157e+02  -2.324749728541e+02   3.351720830755e+02 
7 1 -1.164836662444e+02  -1.346939097437e+02   2.223103618793e+02 
8 1  1.435215721959e+01  -3.411931462775e+02   3.998781204257e+01 
8
Step 19000
1 1 -1.930087392112e-01  -9.685332810959e+01  -9.275004789787e+01 
2 1  1.607331027581e+02  -1.196888470243e+02  -1.284658438654e+02 
3 1  4.181871418983e+01   3.435764919851e+01  -4.449849220172e+01 
4 1  2.104868965647e+01   2.543436626900e+02  -4.665430820566e+02 
5 1  1.662425963366e+02   2.025838734940e+00  -6.316846007939e+01 
6 1 -4.136230311394e+02  -6.722766384497e+01   4.265419723548e+02 
7 1 -7.914232833254e+01  -2.105417838237e+02   3.504130739063e+01 
8 1 -5.392245098419e+01  -1.490341934400e+02  -7.651216378195e+01 
8
Step 20000
1 1 -7.290505782207e+01   8.069838736872e+01  -1.094121561301e+02 
2 1  7.939963277598e+01  -4.029142476319e+01  -9.461960585437e+01 
3 1  8.197982608475e+01   4.369278947249e+01   1.195903829298e+01 
4 1  1.825288669699e+02   1.258766427160e+02  -4.384747906948e+02 
5 1  1.862434380313e+02  -9.018057826247e+01  -1.013073918660e+02 
6 1 -4.477342625125e+02   9.640987122361e+01   3.480021679693e+02 
7 1 -1.996962225992e+01  -1.897133607357e+02  -1.377832811134e+02 
8 1 -8.890022329302e+01   1.257424750828e+02  -1.473524162793e+02 
8
Step 21000
1 1 -1.474611673311e+02   2.098190432527e+02  -7.686064642041e+01 
2 1 -7.486932908139e+01   8.872029856912e+01   4.656959812049e+00 
3 1  1.354312787325e+02   5.551598655048e+01   9.025180851796e+01 
4 1  2.522157207971e+02  -4.184270898207e+01  -2.772275188563e+02 
5 1  1.167353971221e+02  -1.431200888195e+02  -7.885485975255e+01 
6 1 -3.420913651890e+02   1.819809823545e+02   1.248847849434e+02 
7 1  3.918613096836e+01  -9.493798795846e+01  -2.278267255994e+02 
8 1 -7.585234381603e+01   3.599208279480e+02  -1.496919698898e+02 
8
Step 22000
1 1 -1.895579735902e+02   2.451686717793e+02  -2.127434001554e+01 
2 1 -2.238203358916e+02   1.899136246568e+02   1.243419294633e+02 
3 1  1.892149573267e+02   4.757265509927e+01   1.595957044685e+02 
4 1  2.261529356629e+02  -1.873967400193e+02  -4.493404450023e+01 
5 1  1.148200587446e+01  -1.181540792116e+02  -1.016866168731e+00 
6 1 -1.359454647267e+02   1.600861194252e+02  -1.536362752736e+02 
7 1  8.003593849666e+01   2.134419198556e+01  -2.114984036970e+02 
8 1 -2.247118534088e+01   4.494184968259e+02  -9.271971098951e+01 
8
Step 23000
1 1 -1.680979577973e+02   1.835035908427e+02   2.502140446122e+01 
2 1 -2.824537297301e+02   1.934009246873e+02   2.053573729460e+02 
3 1  2.129851879032e+02   5.146801696631e+00   1.833079501249e+02 
4 1  1.364611239623e+02  -2.629602697438e+02   1.769348851141e+02 
5 1 -6.605041393721e+01  -1.611723235359e+01   9.552258231228e+01 
6 1  1.018490274696e+02   5.732094089177e+01  -3.735685559576e+02 
7 1  9.509410437136e+01   1.032509527289e+02  -1.144817284478e+02 
8 1  4.635127298445e+01   3.551746630168e+02  -1.009226273395e+01 
8
Step 24000
1 1 -7.583943550770e+01   6.368505394453e+01   4.251574588565e+01 
2 1 -2.038984255065e+02   7.951108138846e+01   2.032775275535e+02 
3 1  1.742476189350e+02  -6.519955184476e+01   1.366099588467e+02 
4 1  2.963982621716e+01  -2.485063314385e+02   3.184037364303e+02 
5 1 -7.760516965606e+01   1.206488300036e+02   1.609151517567e+02 
6 1  2.953000921997e+02  -6.177948787128e+01  -4.446813755186e+02 
7 1  8.850680039411e+01   1.165249667738e+02   5.329047039089e+00 
8 1  9.970472177107e+01   1.191540078862e+02   5.736519443534e+01 
8
Step 25000
1 1  5.970064821741e+01  -5.202231319609e+01   3.333564377798e+01 
2 1 -9.436020009624e+00  -1.034219517423e+02   1.118654899379e+02 
3 1  5.981024482706e+01  -1.352307121442e+02   2.316579871120e+01 
4 1 -5.526114786509e+01  -1.556483163876e+02   3.468815756018e+02 
5 1 -2.877476620374e+01   2.269591847107e+02   1.583570605591e+02 
6 1  3.869460486918e+02  -1.299803723933e+02  -3.411166245792e+02 
7 1  7.076980718125e+01   6.289815305647e+01   8.795971852216e+01 
8 1  1.136538131264e+02  -1.564133520221e+02   8.162911822702e+01 
8
Step 26000
1 1  1.850087868919e+02  -1.093137192973e+02   1.647004207950e+01 
2 1  2.175275704671e+02  -2.612942880637e+02  -3.344592791519e+01 
3 1 -1.097521290438e+02  -1.665400205544e+02  -1.215142503021e+02 
4 1 -1.000883139713e+02  -1.934343390517e+01   2.752913101095e+02 
5 1  3.798771935267e+01   2.457764534701e+02   8.357846063676e+01 
6 1  3.565693846150e+02  -1.118868412078e+02  -1.111122140123e+02 
7 1  5.020791603702e+01  -2.373688604435e+01   1.002890304502e+02 
8 1  8.032982645764e+01  -3.589729060754e+02   5.975191281353e+01 
8
Step 27000
1 1  2.434239636405e+02  -8.772565361251e+01   1.292985025676e+01 
2 1  3.690782226829e+02  -3.020131277933e+02  -1.719880122185e+02 
3 1 -2.805139464317e+02  -1.300752540165e+02  -2.416786466752e+02 
4 1 -1.074486772117e+02   1.162931853694e+02   1.486209937655e+02 
5 1  7.105616142304e+01   1.557157590413e+02  -3.255974673850e+01 
6 1  2.240702684361e+02  -1.959994177579e+01   1.470303195667e+02 
7 1  2.748993043540e+01  -9.527482714737e+01   4.851629448326e+01 
8 1  9.837762156056e+00  -4.146891654055e+02   1.192546540139e+01 
8
Step 28000
1 1  2.027180931348e+02  -9.653528092664e+00   2.996326048235e+01 
2 1  3.634785509446e+02  -1.853603325990e+02  -2.440628630556e+02 
3 1 -3.818398147674e+02  -2.635218832573e+01  -2.827644210315e+02 
4 1 -9.101769470119e+01   2.108463849578e+02   2.002231097442e+01 
5 1  4.162727071061e+01  -1.545388058081e+01  -1.376651027431e+02 
6 1  4.058449000880e+01   9.488846256467e+01   3.268349000422e+02 
7 1 -3.151180984004e+00  -1.118669377669e+02  -2.842990565265e+01 
8 1 -7.343540154504e+01  -3.163549867057e+02  -3.107146149898e+01 
8
Step 29000
1 1  7.559311079727e+01   7.085283263188e+01   5.450824552405e+01 
2 1  1.899834460392e+02   4.714138234157e+01  -2.197822074947e+02 
3 1 -3.584449811839e+02   1.083991002730e+02  -2.170921506271e+02 
4 1 -6.436525550218e+01   2.392574734135e+02  -7.288969688178e+01 
5 1 -3.732538415588e+01  -1.990685607175e+02  -1.834539243830e+02 
6 1 -1.302404164944e+02   1.673633952971e+02   3.608788732506e+02 
7 1 -4.695441999911e+01  -6.106735384957e+01  -8.073628076082e+01 
8 1 -1.393931127585e+02  -1.219598448552e+02  -4.516850118064e+01 
8
Step 30000
1 1 -8.367471214613e+01   9.753651405507e+01   6.120831589581e+01 
2 1 -8.164981058474e+01   2.876776981063e+02  -1.135471895393e+02 
3 1 -2.000344815286e+02   2.175633153839e+02  -5.950031786414e+01 
4 1 -3.472011895671e+01   1.981399387402e+02  -1.214455396481e+02 
5 1 -1.180994194425e+02  -3.166627402783e+02  -1.506455150151e+02 
6 1 -2.376287793243e+02   1.560027655309e+02   2.497603613757e+02 
7 1 -1.004272178621e+02   3.660353092062e+01  -7.466716995777e+01 
8 1 -1.633066672652e+02   8.012246399537e+01  -2.598547468699e+01 
8
Step 31000
1 1 -2.048510456643e+02   4.225347552677e+01   2.937010243738e+01 
2 1 -3.339824637039e+02   4.147314926965e+02   2.625819698945e+01 
3 1  5.123617849154e+01   2.489505609537e+02   1.374746119498e+02 
4 1 -3.750529387949e+00   1.025475593318e+02  -1.413193284229e+02 
5 1 -1.461600597442e+02  -3.144020581954e+02  -5.669495546203e+01 
6 1 -2.607645130252e+02   6.116434109005e+01   5.417100428786e+01 
7 1 -1.475644172652e+02   1.382457152179e+02  -8.401156203577e+00 
8 1 -1.331703529353e+02   2.167071380595e+02   1.115290614971e+01 
8
Step 32000
1 1 -2.323069755196e+02  -7.947528871846e+01  -4.124969207535e+01 
2 1 -4.516430884368e+02   3.494597538031e+02   1.407433575179e+02 
3 1  3.118233793768e+02   1.776697970177e+02   3.012975111235e+02 
4 1  2.709448103079e+01  -2.044367495759e+01  -1.551035218388e+02 
5 1 -9.115505645132e+01  -1.843276504752e+02   5.380767022377e+01 
6 1 -2.103346276072e+02  -7.618684913480e+01  -1.362112229474e+02 
7 1 -1.631726234278e+02   1.959862392791e+02   8.844744781175e+01 
8 1 -5.250420273444e+01   2.572982221513e+02   4.167051244543e+01 
8
Step 33000
1 1 -1.512370373706e+02  -2.110902238955e+02  -1.236932152886e+02 
2 1 -3.719120648157e+02   9.835841686763e+01   1.854627798620e+02 
3 1  4.818276091116e+02   2.234458364603e+01   3.643741716424e+02 
4 1  5.196008334953e+01  -1.369407397802e+02  -1.737120825981e+02 
5 1  3.231666347509e+01   2.893669579946e+01   1.290398115180e+02 
6 1 -1.200342504109e+02  -1.921225416759e+02  -2.401453780834e+02 
7 1 -1.241184544231e+02   1.755448555550e+02   1.677116403328e+02 
8 1  5.862523922003e+01   2.179970862548e+02   4.587162545751e+01 
8
Step 34000
1 1  9.541437511872e-01  -2.779039034195e+02  -1.727502432650e+02 
2 1 -1.202441075754e+02  -2.361923475755e+02   1.503766535581e+02 
3 1  4.842468646923e+02  -1.564839350071e+02   2.924321587814e+02 
4 1  6.145800689631e+01  -2.138064772680e+02  -1.864996311741e+02 
5 1  1.656172120055e+02   2.411755564499e+02   1.350696884755e+02 
6 1 -3.074594372429e+01  -2.292281852218e+02  -2.198560753841e+02 
7 1 -2.539377874099e+01   7.238953738449e+01   1.846122929621e+02 
8 1  1.663563095208e+02   1.441030963681e+02   2.104755509603e+01 
8
Step 35000
1 1  1.492156407209e+02  -2.242117978024e+02  -1.482569280337e+02 
2 1  1.935859670895e+02  -4.945280903636e+02   6.435319473166e+01 
3 1  3.026768767533e+02  -2.799373633099e+02   1.027967881335e+02 
4 1  4.877601338518e+01  -2.280612118150e+02  -1.659484146490e+02 
5 1  2.331318465595e+02   3.621899500133e+02   7.395185586578e+01 
6 1  2.830552971518e+01  -1.654796045583e+02  -9.758893840293e+01 
7 1  1.088697417287e+02  -8.218100034380e+01   1.198403010726e+02 
8 1  2.315068148339e+02   7.911894445142e+01  -1.623891300232e+01 
8
Step 36000
1 1  2.158286969803e+02  -4.712101891220e+01  -4.159047056853e+01 
2 1  4.213551102503e+02  -5.347039900954e+02  -1.986798076409e+01 
3 1 -1.894622628942e+00  -2.860328340256e+02  -1.363522385498e+02 
4 1  1.682942618250e+01  -1.744867855210e+02  -8.613743386178e+01 
5 1  1.840639203045e+02   3.360175388527e+02  -1.610194515371e+01 
6 1  5.211873386297e+01  -2.759621750167e+01   5.532792475921e+01 
7 1  2.287432469817e+02  -2.290162463115e+02  -8.685823580202e+00 
8 1  2.228669496263e+02   3.927339032178e+01  -4.063210993797e+01 
8
Step 37000
1 1  1.621575605039e+02   1.916776838707e+02   1.102047106618e+02 
2 1  4.498918884742e+02  -3.123986441067e+02  -5.548743744663e+01 
3 1 -3.083436218926e+02  -1.639924761372e+02  -3.302436887418e+02 
4 1 -1.901514037351e+01  -6.957021364613e+01   5.427003275863e+01 
5 1  2.773011345879e+01   1.712200898173e+02  -8.024035621227e+01 
6 1  6.004113602623e+01   1.196151210892e+02   1.539505383387e+02 
7 1  2.790270160038e+02  -3.042897462125e+02  -1.510663516570e+02 
8 1  1.327055023287e+02   7.848738650814e+00  -3.514041783408e+01 
8
Step 38000
1 1  1.411230513234e+01   3.897997849428e+02   2.362740100549e+02 
2 1  2.650352238753e+02   8.281416440862e+01  -3.052025917094e+01 
3 1 -4.891316422343e+02   3.402411212908e+01  -4.000920959706e+02 
4 1 -3.708633191290e+01   5.316377335798e+01   2.204171145298e+02 
5 1 -1.634779011856e+02  -5.929966797890e+01  -7.913101841126e+01 
6 1  8.084634716175e+01   2.071036642452e+02   1.457744271771e+02 
7 1  2.277183698897e+02  -2.690367019426e+02  -2.485376440078e+02 
8 1 -1.539994369206e+01  -4.732435833534e+01  -3.664515761137e+00 
8
Step 39000
1 1 -1.483894748406e+02   4.516284117741e+02   2.657615803895e+02 
2 1 -3.827813703874e+01   4.634055744140e+02   2.526829981435e+01 
3 1 -4.695311792598e+02   2.152820243351e+02  -3.181739598446e+02 
4 1 -2.212394409018e+01   1.545612415229e+02   3.493039190420e+02 
5 1 -2.889125568114e+02  -2.521323264714e+02  -1.373823423371e+01 
6 1  1.290181849008e+02   1.980022018584e+02   3.921907090013e+01 
7 1  8.506671858708e+01  -1.275825896312e+02  -2.602143268736e+02 
8 1 -1.717525597456e+02  -1.420445672446e+02   3.013590006738e+01 
8
Step 40000
1 1 -2.326738406347e+02   3.374841421434e+02   1.686965351414e+02 
2 1 -3.017717662661e+02   6.332173008376e+02   5.912814637773e+01 
3 1 -2.649792919497e+02   2.905593438895e+02  -1.212507267392e+02 
4 1  2.266716937706e+01   2.021459696791e+02   3.768070998487e+02 
5 1 -2.741668357939e+02  -3.215365895145e+02   7.274739328488e+01 
6 1  1.885641705725e+02   1.066123960787e+02  -1.002079847184e+02 
7 1 -9.507375846858e+01   6.988664322371e+01  -1.812339070647e+02 
8 1 -2.759401454730e+02  -2.515855678800e+02   3.792111479239e+01 
8
Step 41000
1 1 -1.878469765960e+02   9.192426949556e+01  -1.724961763090e+01 
2 1 -3.909456204399e+02   4.990263625180e+02   3.073498500006e+01 
3 1  2.062730546982e+01   2.240210129908e+02   1.044590955276e+02 
4 1  7.274935177626e+01   1.835982457217e+02   2.771479175079e+02 
5 1 -1.194121051498e+02  -2.449051309199e+02   1.195724565604e+02 
6 1  2.187293386557e+02  -1.008923886119e+01  -1.868642723277e+02 
7 1 -2.382636044390e+02   2.466048941335e+02  -4.575317712852e+01 
8 1 -2.839706596511e+02  -3.173941086961e+02   7.999542207148e+00 
8
Step 42000
1 1 -3.594645920465e+01  -1.814844040751e+02  -2.039959573029e+02 
2 1 -2.749294786042e+02   1.276646932894e+02  -5.790307297608e+01 
3 1  2.541137217133e+02   5.427976539111e+01   2.701271538230e+02 
4 1  9.455049854834e+01   1.120253221830e+02   8.207639468665e+01 
5 1  9.871389043372e+01  -7.335990712513e+01   8.807705504734e+01 
6 1  1.792027629757e+02  -8.995595958211e+01  -1.675916856753e+02 
7 1 -2.888586231777e+02   3.375404204529e+02   9.407397052943e+01 
8 1 -1.910840822989e+02  -2.833624327403e+02  -4.428031745027e+01 
8
Step 43000
1 1  1.457565649157e+02  -3.781979703979e+02  -3.011505880685e+02 
2 1 -3.140898502937e+01  -3.019271332299e+02  -1.621662387112e+02 
3 1  3.446493097512e+02  -1.330406042300e+02   3.246444507581e+02 
4 1  6.415384101951e+01   1.580230750817e+01  -1.382453776471e+02 
5 1  2.737616402698e+02   1.046543660851e+02  -1.444345171508e+01 
6 1  5.496159139856e+01  -1.023203608253e+02  -4.844664696809e+01 
7 1 -2.329626590315e+02   3.136080660442e+02   1.956190937129e+02 
8 1 -2.948282511553e+01  -1.307410320682e+02  -8.579027744458e+01 
8
Step 44000
1 1  2.650412181886e+02  -4.316360401736e+02  -2.567398222250e+02 
2 1  2.045833585873e+02  -5.868196339323e+02  -2.185659851017e+02 
3 1  2.743198655883e+02  -2.479447073654e+02   2.629449458671e+02 
4 1 -1.827287463794e+01  -7.257185704848e+01  -3.038143923135e+02 
5 1  3.205699650656e+02   2.074954069154e+02  -1.378313353785e+02 
6 1 -1.281695547821e+02  -5.811425700000e+01   1.127179820261e+02 
7 1 -9.814114759148e+01   1.844557128794e+02   2.357632155084e+02 
8 1  1.445031368855e+02   1.028637514888e+02  -8.395543034868e+01 
8
Step 45000
1 1  2.589380792766e+02  -3.355786349509e+02  -8.686491784223e+01 
2 1  3.071370207134e+02  -5.899016510556e+02  -1.803673094865e+02 
3 1  9.956932775016e+01  -2.353653104597e+02   1.223426674003e+02 
4 1 -1.217743849596e+02  -1.240440291391e+02  -3.550635836638e+02 
5 1  2.165884627321e+02   1.937800345763e+02  -2.123704329326e+02 
6 1 -3.030618114052e+02   1.246504568635e+00   2.330541628753e+02 
7 1  5.654253045714e+01  -2.382540494490e+00   2.118198370119e+02 
8 1  2.651791740703e+02   3.259656752734e+02  -2.726490301787e+01 
8
Step 46000
1 1  1.313334809321e+02  -1.482045348732e+02   1.234595988512e+02 
2 1  2.295603372794e+02  -3.182850746408e+02  -5.095645712491e+01 
3 1 -7.753001750792e+01  -1.061385542977e+02  -3.320665471760e+01 
4 1 -1.964408912496e+02  -1.257479585544e+02  -2.865850776929e+02 
5 1  1.827092769145e+01   8.358353032349e+01  -1.888828925151e+02 
6 1 -3.925674441301e+02   3.082471748667e+01   2.501795099636e+02 
7 1  1.662637756322e+02  -1.775299535768e+02   1.406093929742e+02 
8 1  2.862726249974e+02   4.377783416315e+02   6.253998305786e+01 
8
Step 47000
1 1 -5.224374078529e+01   4.596246794291e+01   2.687117148587e+02 
2 1  2.709810479041e+01   8.522066203667e+01   1.169112093557e+02 
3 1 -1.697550866069e+02   7.124116967804e+01  -1.470964491769e+02 
4 1 -2.009768094687e+02  -8.761389713501e+01  -1.473482319296e+02 
5 1 -1.749918162660e+02  -5.552797374841e+01  -6.874732246356e+01 
6 1 -3.525439787013e+02   1.107812314254e+01   1.571038599288e+02 
7 1  1.933034307533e+02  -2.827359934172e+02   4.702930042086e+01 
8 1  2.033941428565e+02   3.869894494990e+02   1.421639661158e+02 
8
Step 48000
1 1 -2.066831795243e+02   1.838398805819e+02   2.782461693766e+02 
2 1 -1.864600285014e+02   4.302792602687e+02   2.522575718702e+02 
3 1 -1.477796996388e+02   2.116593664363e+02  -1.923145676358e+02 
4 1 -1.218674829502e+02  -3.325274543114e+01  -4.261444374184e+00 
5 1 -2.763793137110e+02  -1.489642997588e+02   9.873143050456e+01 
6 1 -1.885887547027e+02  -4.325781655030e+01  -2.047506062424e+00 
7 1  1.392230124707e+02  -2.898149217868e+02  -4.873241537668e+01 
8 1  4.922403553805e+01   1.922859264857e+02   1.700810375548e+02 
8
Step 49000
1 1 -2.662751510070e+02   2.416998881212e+02   1.461759883895e+02 
2 1 -2.987381258968e+02   5.643704709824e+02   2.977926636005e+02 
3 1 -4.390103553827e+01   2.516401428421e+02  -1.711151945791e+02 
4 1  1.966111087850e+01   1.252258007321e+01   9.140815102865e+01 
5 1 -2.472266744096e+02  -1.503261888453e+02   2.386762377092e+02 
6 1  4.656013953614e+01  -9.392168879157e+01  -1.564758053533e+02 
7 1  3.827181391480e+01  -2.028787434819e+02  -1.317788804291e+02 
8 1 -1.207207880858e+02  -6.712880960210e+01   1.246970684231e+02 
8
Step 50000
1 1 -2.131614168948e+02   2.313739694111e+02  -6.269691543734e+01 
2 1 -2.513071560751e+02   4.373028086942e+02   2.350989148333e+02 
3 1  7.053725340994e+01   1.762713455459e+02  -1.066062673879e+02 
4 1  1.713784577469e+02   3.382421966902e+01   1.235924252302e+02 
5 1 -1.127005459984e+02  -6.216625565588e+01   2.844266122614e+02 
6 1  2.686800606926e+02  -1.015862844629e+02  -2.398903608088e+02 
7 1 -5.778037229590e+01  -5.667125011473e+01  -1.887592724972e+02 
8 1 -2.447959244856e+02  -2.809397830558e+02   1.648690079777e+01 
8
Step 51000
1 1 -8.317037534948e+01   1.835118561799e+02  -2.427363777355e+02 
2 1 -6.852009223156e+01   1.223384677608e+02   9.257351988328e+01 
3 1  1.264444869084e+02   2.427394194698e+01  -2.964020811594e+01 
4 1  2.714388260804e+02   3.070532511885e+01   1.140243861660e+02 
5 1  5.320057310074e+01   6.683706207409e+01   2.106634732354e+02 
6 1  3.970436047711e+02  -4.975956851924e+01  -2.219318481256e+02 
7 1 -1.030991385996e+02   9.571452213938e+01  -2.079524526827e+02 
8 1 -2.775709108346e+02  -3.605839564499e+02  -1.132968565728e+02 
8
Step 52000
1 1  5.832926312839e+01   1.243478204185e+02  -3.005653569410e+02 
2 1  1.585999164016e+02  -2.278015187750e+02  -7.108354170644e+01 
3 1  9.405468537996e+01  -1.347721296094e+02   3.436047094926e+01 
4 1  2.760165787039e+02   1.730778102978e+01   1.020199054191e+02 
5 1  1.689668181658e+02   1.678383852690e+02   4.444114579205e+01 
6 1  3.873496703986e+02   4.541702109647e+01  -1.189675570071e+02 
7 1 -7.851952071597e+01   2.024286552924e+02  -1.806493133909e+02 
8 1 -2.055848565922e+02  -2.814956364928e+02  -2.106328967081e+02 
8
Step 53000
1 1  1.500098429027e+02   6.150547502897e+01  -2.000875694641e+02 
2 1  3.185381052923e+02  -4.541451295272e+02  -1.945260521035e+02 
3 1 -4.893834147212e+00  -2.326732513129e+02   7.171977681978e+01 
4 1  1.784530678417e+02   1.133204610954e+01   1.153960252508e+02 
5 1  1.848025302119e+02   1.847246359699e+02  -1.456374507064e+02 
6 1  2.470684269279e+02   1.420579756710e+02   1.755710145430e+01 
7 1  5.914258886006e-02   2.297857024470e+02  -1.048823519376e+02 
8 1 -5.246978546327e+01  -9.229412421108e+01  -2.318381529892e+02 
8
Step 54000
1 1  1.621786026770e+02  -1.231922875131e+01   1.566320080801e+01 
2 1  3.328589565712e+02  -4.619882198498e+02  -2.404937408950e+02 
3 1 -1.109973533291e+02  -2.318876225745e+02   8.174014346686e+01 
4 1  1.405796975682e+01   2.249688215175e+01   1.508269149434e+02 
5 1  1.049539919414e+02   1.029263028245e+02  -2.776938456509e+02 