8
Step 0
1 1  6.432999158367e+02  -3.750043051772e+02   1.863687949543e+02 
2 1 -2.201019873105e+02   2.464960749827e+02  -6.376381097987e+02 
3 1 -6.024538913253e+00  -1.827773412917e+02  -4.399180420284e+02 
4 1  1.026746989624e+02  -4.153192840206e+02  -1.393689401268e+01 
5 1 -9.595944750191e+01  -2.674248283274e+01  -4.487471032148e+02 
6 1 -3.988877813901e+02   3.054212219501e+02   4.208222042057e+01 
7 1 -3.199643233897e+02  -6.637035784303e+01  -1.718066721548e+02 
8 1  3.032519195824e+01   2.941914944596e+01  -2.574490654431e+02 
8
Step 1000
1 1  4.316183145789e+02  -6.662766196601e+02  -2.226822924591e+02 
2 1 -8.371317983344e+02   2.690333227610e+02   1.803282330202e+02 
3 1 -1.557583898587e+02   1.977362128293e+02  -7.565655487926e+02 
4 1 -2.364750864305e+02  -4.306694745660e+02   7.779938741912e+02 
5 1  4.979932961519e+02   3.115821489802e+02  -9.769670569612e+02 
6 1 -7.486790100446e+02   7.411819558042e+02  -1.453908934143e+02 
7 1  4.099913323679e+02  -5.214832870499e+02   1.332690948615e+02 
8 1  3.434808913424e+02  -4.562003043163e+02   2.845714222115e+02 
8
Step 2000
1 1  9.827382472623e+01  -2.392390393697e+02  -3.168517134517e+02 
2 1 -5.117637482120e+02  -4.474469273911e+01   5.692112300198e+02 
3 1 -2.896834266630e+02   3.182500916427e+02  -3.183102760375e+02 
4 1 -3.624694278151e+02  -1.114544849545e+01   5.681271422072e+02 
5 1  5.135382885445e+02   6.774254720625e+01  -2.022395007998e+02 
6 1 -2.804972831290e+02   5.516669483340e+02   4.811896588064e+01 
7 1  7.347476816511e+02  -6.716157721670e+02   3.631212188565e+02 
8 1  2.487027739567e+02  -4.661061487240e+02   4.576541484610e+02 
8
Step 3000
1 1 -4.370096636239e+01   3.361708004998e+02  -7.414564787976e+01 
2 1  2.759394764563e+02  -2.951845453516e+02   1.585102848509e+02 
3 1 -2.642370629143e+02   2.413089626675e+02   1.725576079847e+02 
4 1 -2.350629261067e+02   2.873949080903e+02  -3.399749401725e+02 
5 1 -3.042474699809e+01  -2.672876858164e+02   7.592637856911e+02 
6 1  2.822974712390e+02  -9.568853457601e+01   3.767051105795e+02 
7 1  4.305175410079e+02  -3.395219177686e+02   3.906099240529e+02 
8 1 -1.751195993170e+02  -1.370384809127e+01   7.252172858277e+01 
8
Step 4000
1 1 -1.393985155291e+02   4.826932444822e+02   1.445321980275e+02 
2 1  6.135278138272e+02  -2.303135753071e+02  -3.793343477114e+02 
3 1 -7.770417690803e+01   1.983030467267e+02   2.697445990351e+02 
4 1 -3.049971333138e+00   1.276636874259e+02  -7.370732193166e+02 
5 1 -5.286202088351e+02  -1.511223206279e+02   7.272340912433e+02 
6 1  3.150095465893e+02  -6.081893746680e+02   3.188968278901e+02 
7 1 -1.532137415997e+02   1.983873252782e+02   2.189563064915e+02 
8 1 -5.192959218571e+02   3.197101702394e+02  -3.567174190077e+02 
8
Step 5000
1 1 -3.253741607781e+02   1.319356655083e+02   1.045810163838e+02 
2 1  2.503347479176e+02   2.140141366726e+00  -3.371131023668e+02 
3 1  1.509627973709e+02   1.581169876357e+02   1.374691264251e+02 
4 1  1.668643575641e+02  -2.323378795218e+02  -1.864625826105e+02 
5 1 -4.441660484664e+02   2.834475081185e+02  -1.847063383265e+02 
6 1 -4.002721806624e+01  -6.136182236763e+02  -1.264792225945e+02 
7 1 -5.275205792635e+02   5.142853576780e+02  -6.221417072202e+01 
8 1 -4.572313845247e+02   1.519150438998e+02  -3.293867925453e+02 
8
Step 6000
1 1 -4.292042392404e+02  -2.904749757103e+02  -7.302018636772e+01 
2 1 -2.123758490154e+02   8.909486107480e+01   1.920840751132e+02 
3 1  2.489581051061e+02  -4.135028111125e+01   1.083375745099e+02 
4 1  1.614129505098e+02  -2.543579662620e+02   4.440106456264e+02 
5 1  1.247184648276e+02   4.208359762718e+02  -8.106762037280e+02 
6 1 -1.853059377124e+02  -2.647622525472e+02  -3.684206132980e+02 
7 1 -4.266806495316e+02   4.325452302472e+02  -2.613260899600e+02 
8 1 -4.468232358414e+01  -2.255754014517e+02   7.510643173451e+01 
8
Step 7000
1 1 -2.312653848465e+02  -3.836830700154e+02  -1.281596939608e+02 
2 1 -1.892366223676e+02   2.263832443594e+00   5.068181417445e+02 
3 1  1.485608167841e+02  -3.382467067501e+02   1.837382310734e+02 
4 1  5.590459260790e-01   1.724629413862e+02   2.324420143180e+02 
5 1  5.489366671714e+02   3.029192447360e+01  -4.781386250823e+02 
6 1  8.790384267972e+01   3.269380042655e+01  -6.865821924240e+01 
7 1 -3.104390387656e+01   1.899285163542e+02  -2.400364206064e+02 
8 1  3.816285594044e+02  -2.528353019917e+02   3.479602281308e+02 
8
Step 8000
1 1  1.355089747152e+02  -1.503009195106e+02  -1.664554230158e+01 
2 1  1.600434646444e+02   3.498262823538e+00   2.353183652604e+02 
3 1 -4.002912064247e+01  -4.221887394305e+02   1.293787970823e+02 
4 1 -1.652498628169e+02   5.561983964682e+02  -5.411816533142e+02 
5 1  3.760770884326e+02  -4.079182623359e+02   2.603188318525e+02 
6 1  3.466179677543e+02   7.735387182364e+01   3.536682522413e+02 
7 1  2.527922305075e+02   7.805877471228e+01  -3.077981374520e+01 
8 1  5.203085871850e+02   1.437629076320e+02   2.028359010537e+02 
8
Step 9000
1 1  2.959974908796e+02   1.176360062666e+02   5.910572715889e+01 
2 1  2.527514241846e+02   1.973818798800e+02  -2.244111884662e+02 
3 1 -1.216714855906e+02  -1.491879995323e+02  -9.020332356745e+01 
4 1 -1.624872354604e+02   3.817696705435e+02  -8.097638028994e+02 
5 1 -1.582599467586e+02  -3.384329872420e+02   5.037616031773e+02 
6 1  1.509586782953e+02   1.854930252089e+00   2.815786989839e+02 
7 1  2.115208680549e+02   6.898393763742e+01   1.777915626423e+02 
8 1  3.136700736236e+02   4.623548053116e+02  -1.211835802128e+02 
8
Step 10000
1 1  1.194150356799e+02   1.971855168413e+02  -4.483132470070e+01 
2 1 -7.754163183334e+01   3.084079208354e+02  -2.669792125127e+02 
3 1 -2.008605071857e+00   1.872218471405e+02  -2.228169119570e+02 
4 1  3.359838190799e+01  -2.496807096851e+02  -1.676285280136e+02 
5 1 -4.125189631139e+02   1.383626494703e+02   1.542384599352e+02 
6 1 -3.126072482805e+02   1.203120519790e+01  -2.414681855058e+02 
7 1 -5.314717545625e-01  -5.911879489908e+01   1.898361380843e+02 
8 1 -6.505065091870e+01   3.000654759014e+02  -2.262113821057e+02 
8
Step 11000
1 1 -9.961726143779e+01   1.248854350653e+02  -1.952386528340e+02 
2 1 -3.883769773415e+02   6.546050761576e+01   1.315803077513e+02 
3 1  2.009483560809e+02   2.060116865011e+02  -1.114572662669e+02 
4 1  2.328020880851e+02  -7.081511904456e+02   6.321700336494e+02 
5 1 -1.202521070195e+02   4.142616859943e+02  -1.340614811448e+02 
6 1 -4.720859210656e+02   1.349084418799e+02  -5.508224665025e+02 
7 1 -8.814670763678e+01  -3.231248541429e+02  -1.200669074064e+01 
8 1 -3.679410271657e+02  -1.251902397727e+02  -5.528863592962e+01 
8
Step 12000
1 1 -4.312171421604e+01   5.090721388193e+01  -1.409869602585e+02 
2 1 -2.638109194618e+02  -3.418125275978e+02   4.191853171495e+02 
3 1  2.501373994310e+02  -4.327876605860e+01   6.249079372353e+01 
4 1  1.952859403678e+02  -5.060224801087e+02   7.055327782881e+02 
5 1  3.012355418496e+02   1.674996052548e+02   2.671809045781e+01 
6 1 -1.102358531666e+02   2.318179243436e+02  -2.320626212174e+02 
7 1  3.919121337010e+01  -4.357782184530e+02  -2.381685242456e+02 
8 1 -4.016119006162e+02  -3.050876159397e+02   1.166811419436e+02 
8
Step 13000
1 1  1.955166700343e+02   3.725614795321e+01   1.391316624780e+02 
2 1  1.170241436845e+02  -4.116679065387e+02   1.868128990639e+02 
3 1  4.229168401695e+01  -1.166695612240e+02   3.149547328532e+01 
4 1 -7.130161392221e+01   1.538479197563e+02   1.615405137942e+02 
5 1  2.633779681972e+02  -2.302055400145e+02   2.592356244150e+02 
6 1  3.382251799998e+02   1.947214884417e+02   3.064599758261e+02 
7 1  1.884942964700e+02  -2.023255539621e+02  -2.596270622309e+02 
8 1 -1.463492248898e+02  -1.262984498025e+02   8.590792109016e+01 
8
Step 14000
1 1  2.498581536598e+02   2.291854674661e+01   3.802315136366e+02 
2 1  2.766300683433e+02  -1.354175074437e+01  -3.279614806643e+02 
3 1 -2.581522184043e+02   1.837975353343e+02  -1.481767962786e+02 
4 1 -2.667498299351e+02   6.361923214956e+02  -1.795535114778e+02 
5 1 -2.261752907718e+02  -2.616127883513e+02   6.669639982853e+01 
6 1  3.823786614517e+02   6.006917807009e+01   4.028448299045e+02 
7 1  1.453015554829e+02   1.654296865786e+02  -4.850202252469e+01 
8 1  2.123096781147e+02   2.709628742222e+01  -3.622357762316e+01 
8
Step 15000
1 1 -7.808310535474e+00  -3.427383590616e+01   3.266541854820e+02 
2 1  9.399227223177e+01   3.832261874667e+02  -5.770977585251e+02 
3 1 -3.715950158332e+02   4.691684115594e+02  -1.649287627773e+02 
4 1 -1.229340734989e+02   5.380661669492e+02   3.034952908588e+01 
5 1 -5.577671242434e+02   4.956022823326e+01  -3.893134678883e+02 
6 1  6.838321110125e+01  -5.374743075781e+01   4.821257463038e+00 
7 1 -7.426884972283e+01   2.844132738436e+02   1.998962606306e+02 
8 1  3.924263949184e+02  -1.003446620953e+02  -4.921932032242e+01 
8
Step 16000
1 1 -2.733852082435e+02  -7.443326811562e+01   2.918883204094e+01 
2 1 -9.490898275181e+01   2.601999355546e+02  -3.407493719900e+02 
3 1 -1.925463067717e+02   2.421208462483e+02   8.927684212450e+01 
4 1  2.353283200791e+02   3.671884184305e+01   2.863469801906e+02 
5 1 -2.488312288562e+02   2.154511603101e+02  -4.821480061302e+02 
6 1 -1.574050633615e+02  -5.359043075963e+01  -2.990286109738e+02 
7 1 -2.513476344329e+02   7.090096813373e+01   2.561870730434e+02 
8 1  2.273719455119e+02  -2.406007355065e+02   3.696037379884e+01 
8
Step 17000
1 1 -2.219495608153e+02  -3.418041940378e+01  -2.187883720364e+02 
2 1 -2.920954133712e+01  -2.379268713437e+02   7.047418213522e+01 
3 1  8.171280327264e+01  -3.632953315820e+02   3.216431302344e+02 
4 1  3.768837821836e+02  -3.669754994151e+02   5.781040708466e+01 
5 1  4.266358349442e+02  -2.736884836163e+00  -3.382506781695e+01 
6 1 -9.203352229199e+01   3.842811484352e+01  -1.087512353738e+02 
7 1 -2.325524245659e+02  -1.485229380328e+02   1.012744255326e+02 
8 1 -1.400775905991e+02  -2.439704388156e+01   4.253618127592e+01 
8
Step 18000
1 1  6.521972819098e+01   3.304569341330e+01  -2.353965815877e+02 
2 1  1.202076961623e+02  -4.636736482321e+02   2.736098358552e+02 
3 1  1.870973071612e+02  -6.617372864751e+02   2.204035128503e+02 
4 1  7.442058350821e+01  -3.937130821289e+02  -4.278288633443e+02 
5 1  7.480407836478e+02  -2.697876636427e+02   4.169819902381e+02 
6 1  3.417806791210e+00   8.820911414455e+01   2.709796960915e+02 
7 1 -7.390076908582e+01  -8.108173301269e+01  -8.062541068956e+01 
8 1 -3.710217868930e+02   3.903460516914e+02  -8.982068775236e+01 
8
Step 19000
1 1  2.185694343460e+02   4.444518526142e+00  -1.133265894312e+02 
2 1  6.379652854002e+01  -8.228762492498e+01   2.075487144376e+02 
3 1  7.667017687581e+01  -2.401531926404e+02  -1.164906922609e+02 
4 1 -3.743190706484e+02  -1.579018240712e+02  -5.275027720208e+02 
5 1  3.422982690917e+02  -1.583146805013e+02   3.202136375940e+02 
6 1 -1.245166628533e+02  -4.127872411288e+01   2.927063748401e+02 
7 1  7.485261711148e+01   1.630099146470e+02  -1.109417421934e+02 
8 1 -2.374309080638e+02   4.221373551794e+02  -1.920584767020e+02 
8
Step 20000
1 1  6.744099579899e+01  -1.306529397202e+02  -6.217491185595e+01 
2 1 -1.295888479052e+02   4.493000258984e+02   8.982611018672e+01 
3 1 -4.183520481739e+01   4.270787915594e+02  -2.766439061860e+02 
4 1 -4.531842303553e+02   4.180140250314e+01  -1.410589275633e+02 
5 1 -3.672897177251e+02   2.236787501299e+02  -1.279583380446e+02 
6 1 -2.891970305270e+02  -3.153908779413e+02  -5.192725123914e+01 
7 1  1.468446465953e+02   2.446656918248e+02  -4.186454088961e+00 
8 1  1.130739986462e+02  -1.039647600354e+02  -1.026442990822e+02 
8
Step 21000
1 1 -1.696488159519e+02  -2.080580788240e+02  -1.172011698852e+02 
2 1 -1.371959378409e+02   4.759008641656e+02   6.756778853411e+01 
3 1  9.630095402358e+00   5.448910340841e+02  -8.673863972032e+01 
4 1 -6.802540775994e+01   7.837481297806e+01   1.752430661727e+02 
5 1 -6.936966534538e+02   3.727628742905e+02  -2.889467146164e+02 
6 1 -1.243911726337e+02  -4.901398609403e+02  -2.574188284632e+02 
7 1  1.762246962980e+02   7.546185006285e+01   8.199608671156e+01 
8 1  3.174216660967e+02  -6.011472600706e+02   1.145256888192e+02 
8
Step 22000
1 1 -2.101524791974e+02  -6.782682277589e+01  -1.261742918171e+02 
2 1  9.915980875399e+01  -2.570176012282e+01   9.589733608214e+01 
3 1  1.619274161578e+02  -2.786713208868e+01   1.675479087945e+02 
4 1  3.124736467770e+02   4.408688920408e+01   3.606195979251e+01 
5 1 -4.057244050041e+02   6.431663194848e+01   3.599901800074e+01 
6 1  3.190513198501e+02  -3.163662670739e+02  -4.544176990534e+01 
7 1  1.602406915308e+02  -8.855113466070e+01   4.540720538007e+01 
8 1  1.785977776869e+02  -3.902067665208e+02   2.545549731803e+02 
8
Step 23000
1 1 -6.946641044267e+01   2.074602095694e+02   1.304133491362e+01 
2 1  2.294206080228e+02  -4.188974767095e+02   9.981067184030e+01 
3 1  2.041267013907e+02  -5.756920785208e+02   1.324520750410e+02 
4 1  2.268189008625e+02   6.745215429216e+01  -2.126163638142e+02 
5 1  1.000796542148e+02  -3.287276530739e+02   3.454550717058e+02 
6 1  5.258572536580e+02   1.405449929166e+02   2.269539415564e+02 
7 1  3.946020397598e+01  -4.200210115844e+01  -5.831586999487e+01 
8 1 -1.160975302924e+02   3.627666847219e+02   2.261196707122e+02 
8
Step 24000
1 1  3.860459765520e+01   3.413040406513e+02   2.151043125461e+02 
2 1 -7.162806820591e+00  -2.565926869691e+02   7.634116661607e+01 
3 1  5.486994741028e+01  -4.237643338083e+02  -1.289151163466e+02 
4 1 -1.788602183107e+02   1.498915158643e+02  -3.093789327805e+01 
5 1  3.610079805167e+02  -3.317982881694e+02   1.649105674836e+02 
6 1  1.670046375930e+02   5.193468762514e+02   8.777442104081e+01 
7 1 -1.779415643217e+02   6.207349914250e+01  -1.188991262122e+02 
8 1 -2.370042499973e+02   7.836177368305e+02   1.009926550516e+02 
8
Step 25000
1 1  3.892607711053e+01   1.553436381288e+02   3.127895703387e+02 
2 1 -3.537733820379e+02   1.719125264617e+02   2.071731088831e+01 
3 1 -1.402276496808e+02   2.544169539415e+02  -2.190715588287e+02 
4 1 -3.047589454178e+02   1.903842662926e+02   4.737700688438e+02 
5 1  2.985280668962e+02   3.752157109125e+01  -2.884260667766e+02 
6 1 -4.017774627141e+02   4.945691790660e+02  -3.590343929374e+02 
7 1 -3.146355705158e+02  -4.735590832944e+01  -1.014257746313e+02 
8 1 -8.155698786223e+01   3.330987424994e+02  -3.924237846444e+01 
8
Step 26000
1 1  7.602571434558e+01  -1.898387852642e+02   2.481840807259e+02 
2 1 -3.175487242339e+02   2.522319576337e+02  -1.208558098434e+02 
3 1 -1.909538729821e+02   6.481207460321e+02   4.344743692689e+01 
4 1  1.277001386242e+02   1.163384337278e+02   6.140339282855e+02 
5 1  1.512706813727e+02   3.075951423338e+02  -3.854108290440e+02 
6 1 -4.930334110373e+02   1.491668789521e+02  -5.100859870120e+02 
7 1 -1.707451051743e+02  -3.117472052417e+02  -4.822352140543e+01 
8 1  1.230836045299e+02  -4.639500043694e+02  -1.918454926221e+02 
8
Step 27000
1 1  2.311562668604e+02  -3.241235020422e+02   9.494519878307e+01 
2 1  1.356572563922e+02  -1.052817870579e+02  -3.182512042947e+02 
3 1 -8.733054653893e+01   3.069045423148e+02   3.233455986783e+02 
4 1  6.210011943940e+02  -3.972500599865e+01   9.264103254845e+01 
5 1  8.045915960474e+01   1.739834240879e+02   3.368716388323e+01 
6 1  3.894792372843e+01  -9.041810851444e+01  -6.769349662377e+01 
7 1  1.966041380588e+02  -3.499043569116e+02   1.361682425799e+01 
8 1  1.143276078246e+02  -6.203631729694e+02  -3.229013631111e+02 
8
Step 28000
1 1  3.269299126659e+02  -8.879127340191e+01  -6.819805224402e+01 
2 1  4.423464858624e+02  -3.340618607560e+02  -3.738237310031e+02 
3 1  9.972509207470e+00  -2.945651923361e+02   1.857658457804e+02 
4 1  4.781178663981e+02  -1.795407488763e+02  -4.576260550875e+02 
5 1  3.989860964927e+00  -1.110223407716e+02   3.853523110921e+02 
6 1  5.176003340272e+02   3.085230269682e+01   4.832456677786e+02 
7 1  4.279871746848e+02  -7.736767665396e+00   9.192081513736e+01 
8 1 -6.348838581321e+01   6.200095455286e+00  -2.924524015264e+02 
8
Step 29000
1 1  1.626604900586e+02   2.537690523191e+02  -2.275679733639e+02 
2 1  1.926135502031e+02  -4.678560957398e+01  -1.345912547029e+02 
3 1 -1.933836525167e+00  -4.198066356452e+02  -2.725199757110e+02 
4 1 -2.364093246763e+02  -2.382430762909e+02  -3.121348198510e+02 
5 1 -1.792099530912e+02  -1.354705587770e+02   1.577106879823e+02 
6 1  2.926524112526e+02   2.317005356117e+02   4.930699421485e+02 
7 1  2.296063629053e+02   3.502937046751e+02   1.550157603853e+02 
8 1 -1.242861863145e+02   4.861804620084e+02  -2.039329236558e+01 
8
Step 30000
1 1 -1.434947699448e+02   3.103446298538e+02  -3.368586266281e+02 
2 1 -2.656976179022e+02   3.631186124949e+02   2.211852715993e+02 
3 1 -6.220093314514e+01  -3.200643239847e+01  -4.778788291528e+02 
4 1 -6.865863978506e+02  -2.129471599233e+02   2.864047494377e+02 
5 1 -3.484391246034e+02   8.131923744701e+01  -3.416576463671e+02 
6 1 -3.728720724747e+02   5.433223099992e+01   2.221574070435e+01 
7 1 -2.466951501855e+02   3.015504534959e+02   1.179767448207e+02 
8 1  6.144865501708e+01   9.089888758897e+01   2.971510424394e+02 
8
Step 31000
1 1 -2.802228307265e+02   1.605102051666e+01  -2.691956500807e+02 
2 1 -2.933501100845e+02   2.746807883797e+02   3.204042337896e+02 
3 1 -7.754071450807e+01   2.560233691025e+02  -1.158295532582e+02 
4 1 -3.421666399904e+02  -1.058615347235e+02   4.377789306234e+02 
5 1 -2.845342079381e+02   1.574254343726e+02  -4.065265761179e+02 
6 1 -6.168479477416e+02  -4.704815180764e+02  -2.780851074908e+02 
7 1 -5.167305371768e+02  -4.028482503829e+01  -3.792388064816e+01 
8 1  2.693838427048e+02  -6.552326464288e+02   3.342546017616e+02 
8
Step 32000
1 1 -1.799590079431e+02  -2.912214937542e+02   8.696395702410e+00 
2 1  1.344258720823e+02  -2.262656201919e+02   6.545007832149e+01 
3 1 -4.941239286695e+01   8.822749779125e+01   4.172892475984e+02 
4 1  2.898101160872e+02   8.018724494420e+01  -1.297723366734e+02 
5 1  1.242858557300e+01  -5.920197825785e+01   7.776070595492e+01 
6 1 -1.064682397603e+02  -7.608690564786e+02  -8.110387683577e+01 
7 1 -2.789873870645e+02  -1.785147606211e+02  -1.710411733477e+02 
8 1  1.981876183276e+02  -6.565631891851e+02   4.702170741458e+01 
8
Step 33000
1 1 -1.102463816826e+02  -2.858152771341e+02   2.893536576659e+02 
2 1  3.930427749585e+02  -4.273763043197e+02  -1.937648859993e+02 
3 1 -7.088015494032e+00  -1.855574195101e+02   5.051196325586e+02 
4 1  3.437529741307e+02   2.760658530494e+02  -6.681458200229e+02 
5 1  2.845367122962e+02  -2.684256637590e+02   4.910713586442e+02 
6 1  5.202809869461e+02  -4.246035320145e+02   2.078154006287e+02 
7 1  2.335431104562e+02   4.572058927115e+01  -1.176132031578e+02 
8 1 -1.287126913575e+02   2.092769497558e+02  -2.104159643969e+02 
8
Step 34000
1 1 -2.270772478586e+02  -1.708460116179e+01   3.006985548074e+02 
2 1  1.140590718265e+02  -1.152957997397e+01  -1.106461041998e+02 
3 1  8.740738341744e+01  -1.205115873793e+02   7.874118591194e+01 
4 1 -2.234166158381e+02   3.269779797344e+02  -5.006134855080e+02 
5 1  3.174781456120e+02  -1.744256792011e+02   3.562814127904e+02 
6 1  5.145501709326e+02   2.329546778003e+02   1.181327214940e+02 
7 1  5.201945917972e+02   2.492286550938e+02   8.550499701313e+01 
8 1 -3.823611401498e+02   9.181996672510e+02  -1.237845850559e+02 
8
Step 35000
1 1 -3.055484916913e+02   1.911607571732e+02   2.774431226577e+01 
2 1 -3.037074069481e+02   4.612340881632e+02   2.020266484995e+02 
3 1  2.458934452044e+02   1.539905122938e+02  -3.262711328665e+02 
4 1 -5.819217122739e+02   1.239539930394e+02   4.993314815123e+01 
5 1  1.487162007693e+02   9.364532645372e+01  -7.120286131873e+01 
6 1 -5.330579157534e+01   5.521960359765e+02  -2.052490820492e+02 
7 1  3.290709573850e+02   1.058721688816e+02   2.006790862390e+02 
8 1 -3.054193995277e+02   6.505743157408e+02   1.676659765668e+02 
8
Step 36000
1 1 -7.074179711786e+01   1.475879796713e+02  -2.423107780892e+02 
2 1 -3.041279236404e+02   3.354476839992e+02   3.451317151554e+02 
3 1  3.382164215931e+02   1.725080808795e+02  -2.809050893499e+02 
4 1 -1.730461227554e+02  -2.278227177484e+02   2.292194496849e+02 
5 1 -4.778252302690e+01   2.005726548277e+02  -2.655618356093e+02 
6 1 -4.734612027781e+02   3.264921361233e+02  -2.797268984905e+02 
7 1 -1.178966459286e+02  -1.635612694417e+02   7.861028402460e+01 
8 1  9.884606258058e+00  -1.702507746751e+02   2.575298613826e+02 
8
Step 37000
1 1  3.629856248495e+02  -3.313335512400e+01  -2.428788691318e+02 
2 1  4.975585184469e+01  -2.418090464085e+02   1.736940732439e+02 
3 1  1.936431214699e+02  -1.490439998203e+02   4.836696919242e+01 
4 1  5.710349635587e+02  -4.381966017038e+02  -2.476460288962e+01 
5 1 -1.809799627243e+02   7.877332183926e+01  -1.516964100328e+02 
6 1 -3.230925709406e+02  -3.880743468082e+01  -1.728706095486e+01 
7 1 -4.151915137352e+02  -1.567916842634e+02  -1.481965505590e+02 
8 1  2.737478133032e+02  -5.593723519462e+02   1.477758983042e+01 
8
Step 38000
1 1  5.719774546135e+02  -1.254203529718e+02  -3.205702962380e+00 
2 1  2.272150993210e+02  -5.245187066278e+02  -6.512727374315e+01 
3 1 -1.618088679614e+02  -3.727053800380e+02   1.858899654934e+02 
4 1  7.860035431921e+02  -2.633919929712e+02  -7.526271389898e+01 
5 1 -2.419901784051e+02  -3.900686258664e+01  -5.563857231751e+01 
6 1  1.371423969906e+02  -1.048130185867e+02   1.850791632315e+02 
7 1 -3.470835444671e+02   8.674306445579e+01  -2.205294618566e+02 
8 1  2.949279799407e+02  -2.123151347653e+02  -2.570415875268e+02 
8
Step 39000
1 1  3.449748012533e+02  -5.195403910443e+01   2.003786289281e+02 
2 1  1.292112297078e+00  -1.402056602108e+02  -1.131616169356e+02 
3 1 -4.320537384946e+02  -1.345171167102e+02  -5.118627615254e+01 
4 1  2.271904994598e+02   2.120057278718e+02   3.951131090899e+02 
5 1 -1.974340481226e+02   8.202998562734e+00  -1.348487227697e+02 
6 1  3.784756972934e+02   9.825831930021e+01   3.783407296255e+01 
7 1 -2.960310118643e+01   1.087758419101e+02  -7.007621569539e+01 
8 1  1.133842651327e+02   2.472901761601e+02  -2.162060330348e+02 
8
Step 40000
1 1 -3.777164188473e+01   7.183741607345e+01   1.766480294209e+02 
2 1 -2.373296585664e+02   4.143343502254e+02  -6.783347352130e+01 
3 1 -3.509581864649e+02   3.264223056541e+02  -3.376413327028e+02 
4 1 -4.590118295970e+02   5.729148397215e+02   8.164222163336e+02 
5 1 -1.111046775398e+01   8.122024773546e+01  -1.526950602726e+02 
6 1  2.346849226599e+02   2.047769404668e+02  -2.140236939571e+02 
7 1  2.424352600553e+02  -2.695624257585e+02   1.006481661464e+02 
8 1 -9.279801432544e+01   1.961825640056e+02   5.786425902034e+01 
8
Step 41000
1 1 -1.885115675583e+02   1.145650667602e+02   2.310541340401e+01 
2 1 -7.824265722190e+01   4.284785836693e+02  -1.829831789097e+02 
3 1 -1.307346921068e+00   4.501235564966e+02  -2.493961473520e+02 
4 1 -5.586196578907e+02   4.322686004779e+02   4.723846143543e+02 
5 1  2.362043048694e+02  -1.200798688765e+01   9.469507572702e+01 
6 1 -3.783791614376e+01   4.381236198107e+01  -1.497078033841e+02 
7 1  2.674165744178e+02  -5.656100767145e+02   1.015463544673e+02 
8 1 -1.815807664924e+02  -1.998670266921e+02   1.788919982390e+02 
8
Step 42000
1 1 -9.832499191408e+01   7.411515992516e+01  -2.306703576091e+01 
2 1  2.703221906260e+02  -9.448695264625e+01  -4.142548135214e+02 
3 1  2.266733911021e+02   8.784734071589e+01   1.986365065149e+02 
4 1 -1.111415809869e+02  -1.320716932543e+02  -3.960556214727e+02 
5 1  3.447600998173e+02  -1.759059337073e+02   3.695020103627e+02 
6 1 -1.633722119355e+02  -1.524553069944e+02   1.996862326833e+02 
7 1  8.581345422196e+01  -2.271687663185e+02   4.767610678944e+00 
8 1 -1.256872423161e+02  -3.334770102281e+02  -2.135455727926e+01 
8
Step 43000
1 1 -7.872124691116e+01   2.995873956705e+01   8.904003377040e+01 
2 1  2.659459092999e+02  -4.717088868017e+02  -3.988571076457e+02 
3 1  1.036371340876e+02  -3.068864176591e+02   5.510388846615e+02 
4 1  2.632846861938e+02  -6.079952329115e+02  -8.218067368606e+02 
5 1  2.051663628851e+02  -1.402578905552e+02   2.865575480612e+02 
6 1 -1.508042008203e+02  -1.221973862325e+02   3.714148129997e+02 
7 1 -9.805379346603e+01   5.391063259831e+02   7.751665673697e+00 
8 1  6.157052264946e+00  -5.413809886630e+01  -2.584216557140e+02 
8
Step 44000
1 1 -2.419426399459e+02   3.810490841855e+00   1.630314472747e+02 
2 1 -1.647951804159e+02  -2.335214486837e+02   4.927683215099e+01 
3 1 -1.612969973956e+02  -2.645353301767e+02   4.033171216288e+02 
4 1  1.863684415168e+02  -5.250074944611e+02  -3.587285509876e+02 
5 1 -7.021070852625e+01   1.257853981051e+02  -1.160378847400e+02 
6 1 -1.309504337476e+02   4.540891491102e+01   1.042203307938e+02 
7 1 -1.190420874102e+02   8.683121272081e+02   1.118265665726e+02 
8 1  1.146268025537e+02   1.899822603821e+02  -1.713138757467e+02 
8
Step 45000
1 1 -3.202871776505e+02  -5.054307777494e+01   3.110510731637e+01 
2 1 -4.366994289832e+02   2.776913025589e+02   5.572456969196e+02 
3 1 -1.787051555768e+02   1.110963170920e+02  -1.189207511592e+02 
4 1 -9.084880992297e+01   2.190650018561e+01   2.825554236652e+02 
5 1 -2.393364065142e+02   3.056461066375e+02  -3.453070723551e+02 
6 1 -1.058425223503e+02   4.386356491254e+01  -2.645656858234e+02 
7 1 -6.567364054315e-01   3.154197754631e+02   1.016404434070e+02 
8 1  1.270269050029e+02   5.766352443264e+01   1.755286839327e+02 
8
Step 46000
1 1 -8.505370522941e+01  -1.377114016122e+02  -2.215492019516e+02 
2 1 -1.091306874106e+02   4.182998251326e+02   6.031006484987e+02 
3 1  1.181447566144e+02   3.260573137532e+02  -5.139451468475e+02 
4 1 -1.584132756285e+02   4.751116807459e+02   2.411187847425e+02 
5 1 -2.015444111222e+02   1.545604917863e+02  -1.226261015789e+02 
6 1  1.861525870968e+01  -1.843301143374e+02  -2.619600042349e+02 
7 1  9.359060136708e+01  -5.148584013072e+02  -1.146395348016e+02 
8 1  4.812599198783e+01  -1.839864932340e+02   3.741307274006e+02 
8
Step 47000
1 1  2.603099782125e+02  -1.630414388982e+02  -3.626468160953e+02 
2 1  4.715227786986e+02   6.251290209447e+01   1.426170899183e+02 
3 1  3.957158623788e+02   1.222981373316e+02  -4.218738886117e+02 
4 1 -4.208768582328e+00   3.960936554718e+02  -3.418714662456e+02 
5 1 -6.695646763859e+01  -1.701091363896e+02   2.376856313990e+02 
6 1  2.012927361265e+02  -3.401534992332e+02   9.484070912984e+01 
7 1  4.603065407451e+01  -6.627259021673e+02  -2.971561637157e+02 
8 1 -5.095598116077e+01  -9.602884159101e+01   1.925455170669e+02 
8
Step 48000
1 1  3.083331968128e+02  -4.662269854110e+01  -2.834022210372e+02 
2 1  5.660199055605e+02  -2.990583191551e+02  -3.047208402544e+02 
3 1  3.328705429564e+02  -2.524759153811e+02   1.982739521753e+01 
4 1  6.722178578479e+01  -6.700195762815e+01  -5.639690030785e+02 
5 1  4.295852217311e+00  -3.091908593270e+02   2.452798901394e+02 
6 1  2.399501574101e+02  -1.691973327923e+02   3.253070500432e+02 
7 1 -8.598177653476e+01  -3.209567132708e+00  -1.484442894524e+02 
8 1 -1.017961249958e+02   2.610314034978e+02  -1.362978911855e+02 
8
Step 49000
1 1  2.793968953604e+01   1.343499693455e+02  -8.739564376050e+01 
2 1  2.101642575000e+01  -2.544302812170e+02  -2.979436276948e+02 
3 1  1.883914044081e+00  -4.036194819632e+02   3.551909618105e+02 
4 1 -5.689876699363e+01  -3.604443525051e+02  -5.639096298656e+01 
5 1 -1.219476903240e+01  -1.759332223456e+02  -9.559638017280e+01 
6 1  3.829976828940e+01   1.749366805452e+02   1.341097311318e+02 
7 1 -1.425464194787e+02   5.753876466966e+02   2.431006309646e+02 
8 1 -1.081682459553e+02   4.091523192305e+02  -2.346800275270e+02 
8
Step 50000
1 1 -1.749338070516e+02   1.950608842600e+02   8.828931834666e+01 
2 1 -5.319551226989e+02   3.716167500234e+01   1.399757222049e+01 
3 1 -2.664071279160e+02  -2.324844108490e+02   3.028143940871e+02 
4 1 -1.410889461206e+02  -1.673665396101e+02   5.368230975747e+02 
5 1 -1.939445166642e+01  -1.446842985616e+01  -3.192489098597e+02 
6 1 -2.242153246389e+02   3.239305677901e+02  -2.323845160854e+02 
7 1 -5.297129705749e+01   3.043493561597e+02   4.359154251544e+02 
8 1 -1.140432752927e+02   1.461794928008e+02  -5.510862366467e+01 
8
Step 51000
1 1 -1.859042297225e+01   5.129467417663e+01   2.186981415793e+02 
2 1 -4.902324061771e+02   1.590027327198e+02   1.583660703285e+02 
3 1 -2.809269648074e+02   6.287680061436e+01   5.382369470010e-01 
4 1  2.008583726426e+01   2.485029840502e+02   4.984092888988e+02 
5 1  4.914454409865e+01  -3.161199395376e+00  -1.461127245384e+02 
6 1 -2.677639097765e+02   1.576746011823e+02  -3.504390609485e+02 
7 1  8.384195518576e+01  -5.013416538423e+02   1.567782190247e+02 
8 1 -1.046953540465e+02  -1.821063694434e+02   1.160613290154e+02 
8
Step 52000
1 1  2.499344543971e+02  -1.483725450400e+02   3.243626123063e+02 
2 1 -1.751382454580e+01   2.159639282437e+01  -2.861273141652e+01 
3 1 -1.391066532042e+02   2.691523185996e+02  -2.017464008520e+02 
4 1  2.701013543783e+02   3.640841832753e+02   1.881327842614e+01 
5 1  1.509767340232e+02  -1.064516506786e+01   1.632006881752e+02 
6 1 -2.864329729066e+01  -6.497812955854e+01  -1.471080500595e+02 
7 1  1.115531712172e+02  -8.262892586908e+02  -3.223231832381e+02 
8 1  1.129036898868e+00  -1.874506309885e+02   6.485602795510e+01 
8
Step 53000
1 1  1.917928213329e+02  -1.629763099400e+02   3.512012373495e+02 
2 1  2.447707923943e+02  -8.206859878875e+01  -2.282532553119e+02 
3 1 -2.050624850633e+01   3.221765194680e+02  -1.457211198450e+02 
4 1  2.859067669127e+02   1.506711127339e+01  -1.438368925226e+02 
5 1  1.933488592882e+02   1.548414865183e+02   2.078073573355e+02 
6 1  2.615617900996e+02  -5.695879244886e+01   9.331618596178e+01 
7 1 -4.538315771367e+00  -2.068213699573e+02  -4.715530841975e+02 
8 1  2.202381548591e+02   1.665709437087e+01  -9.222812964414e+01 
8
Step 54000
1 1 -1.816355778300e+02   5.296932089832e+01   2.108204773055e+02 
2 1  6.074805746295e+01   3.263817513456e+01  -1.243115341491e+02 
3 1  2.417600069023e+01   2.415025477448e+02  -8.583569687972e-01 
4 1  2.940276479012e+01  -4.101897665726e+02   2.051278641981e+02 
5 1  1.199190037119e+02   3.860610577929e+02  -1.278247779242e+00 