8
Step 0
1 1  2.102812612098e+02  -2.655266881609e+01   2.469150848499e+02 
2 1  2.129669741671e+02  -2.677024908433e+02   1.391703741763e+01 
3 1  4.441614698894e+01   6.526922337478e+01   1.977105477576e+02 
4 1  1.233129568381e+02  -2.027273609915e+02   1.931714386653e+02 
5 1 -2.433787715067e+02   7.851969321387e+01  -1.072090194464e+02 
6 1  3.403742539992e+02   3.416603002083e+02  -3.540540653644e+02 
7 1  5.109895238710e+01   1.241511997057e+02  -1.903199120138e+02 
8 1  7.332657538610e+01   1.823649361654e+02   5.082089555245e+00 
8
Step 1000
1 1  3.330230229575e+00   3.430802856583e+02  -1.345508850041e+02 
2 1  9.812236205632e+01   7.682574569318e+01  -6.479416925379e+01 
3 1 -3.666550835755e+02  -3.455027564953e+02  -2.374993477601e+02 
4 1  1.976683529253e+02  -8.337832285373e+01   3.130570111790e+02 
5 1  2.503820455559e+02  -3.467545226417e+02  -4.196833573029e+02 
6 1 -1.757649722224e+02   4.443895574541e+02   3.503503091868e+01 
7 1  1.018706806692e+02  -1.917456257104e+02  -4.399844579090e+02 
8 1 -2.742494394181e+02   4.168128079123e+01   4.004517322884e+02 
8
Step 2000
1 1 -9.058364770526e+01  -7.546647759261e+01   1.836609267128e+02 
2 1  1.016392442314e+01   4.056388383228e+01  -1.129652937143e+02 
3 1  2.238563585962e+02   6.601916968069e+02   3.583551710303e+02 
4 1 -2.967862165489e+02  -1.131754851804e+02  -7.605386816606e+02 
5 1 -3.588720791627e+02   4.619030127831e+02   5.633874672892e+02 
6 1  1.805623618718e+02  -1.226243312570e+02   1.093715852441e+02 
7 1 -3.588323980578e+01   1.071572136771e+02   3.277519735696e+02 
8 1  2.704542568955e+02   2.614521848216e+02  -7.831581796807e+02 
8
Step 3000
1 1  4.617543028343e+00   9.181074953382e+01  -3.220266259518e+01 
2 1 -2.181278877042e+02   9.419489558795e+01   4.253190625273e+02 
3 1 -3.888258362497e+02  -4.657034137403e+02  -3.262098594496e+02 
4 1  3.548588797442e+02   1.052695503183e+02   3.441268395718e+02 
5 1  6.032961770028e+01  -6.247668431174e+02  -5.845488437887e+02 
6 1 -5.885951706948e+02   4.268766986357e+02   2.756856991485e+02 
7 1  1.214273526056e+02  -7.065941664036e+01  -6.216043746997e+02 
8 1 -1.883258356213e+02   4.824651196808e+02   8.733709283649e+02 
8
Step 4000
1 1 -1.366607393897e+02  -5.637360244963e+01   3.379224957931e+02 
2 1  2.748367048275e+02   6.185642813765e+01  -4.818720469853e+02 
3 1  8.088050878468e+01   6.478469155057e+02   9.354829542107e+01 
4 1 -2.591965214577e+02  -1.820653692162e+02  -1.586146153526e+02 
5 1 -6.585848712809e+02   4.023205389486e+02   7.131439076512e+02 
6 1 -1.353534293040e+01  -4.727459338086e+02  -7.199915568714e+01 
7 1  9.974007612988e+01   3.305243823288e+02   5.789487857134e+02 
8 1  3.843523110781e+02  -8.170838098235e+01  -9.000047007723e+02 
8
Step 5000
1 1  1.353063918150e+02   2.516060108162e+02  -8.658437233746e+01 
2 1 -4.552710909889e+02   8.723295488698e+01   4.063993081190e+02 
3 1 -3.054091007969e+02  -2.892710602665e+02  -1.094339134164e+02 
4 1 -2.127033828792e+02   7.746044330328e+01   5.258157059942e+02 
5 1  3.468692653140e+02  -6.553828374046e+02  -2.631880462449e+02 
6 1  1.532606098412e+02   8.871965766407e+02   3.044219730090e+01 
7 1  2.450622149405e+02  -3.314314495948e+02  -8.246546474980e+02 
8 1 -3.003998991543e+02   2.230230101067e+02   7.088644838875e+02 
8
Step 6000
1 1 -4.151197795015e+02   4.712870152631e+00   3.158251699154e+02 
2 1  3.943369861615e+02   1.390441766151e+02  -2.599750612498e+02 
3 1 -1.110331499818e+02   3.120646167673e+02   2.812717017422e+02 
4 1  3.048708880478e+02   7.748079921488e+00  -2.112765670423e+02 
5 1 -1.339322391588e+02   4.653958235348e+02   1.072033685304e+01 
6 1 -4.363889996137e+01  -3.587179969535e+02  -2.225781696612e+02 
7 1 -4.442828949900e+02   9.377060639240e+01   4.791179198052e+02 
8 1  1.169814465968e+02  -3.651173112965e+02  -2.189406258609e+02 
8
Step 7000
1 1  3.392436341338e+02  -6.495149016524e+01  -1.679642563582e+02 
2 1 -4.098776806473e+02  -1.228207528782e+02   2.490838096822e+02 
3 1 -1.496214737215e+01   1.974063815948e+02   1.180434664013e+02 
4 1 -2.570993504395e+02  -1.689371784176e+02  -2.214018738625e+02 
5 1  2.663842831592e+02  -4.103609405422e+02   3.035326889416e+02 
6 1 -1.124777671985e+02   4.376572808624e+02   2.824308307215e+01 
7 1  9.607045108386e-01  -2.959497010914e+02  -2.477656526074e+02 
8 1  3.515395642213e+01   2.911317340491e+02   3.031852591430e+02 
8
Step 8000
1 1 -4.150181311173e+02   4.669441812377e+01   1.599039869718e+02 
2 1  4.262518407989e+02   9.770194185757e+01  -1.850065642442e+02 
3 1 -1.156429271415e+02  -2.150791503399e+02  -1.911494343123e+02 
4 1  6.567856585968e+02  -9.846523297176e+01   3.476655868318e+02 
5 1 -7.797187840158e+02   1.778961900396e+02  -1.663129731958e+02 
6 1 -5.311397835131e+02  -3.157098580310e+02   3.294348179401e+01 
7 1  2.745701099592e+02   1.664096980177e+02  -2.537071074676e+01 
8 1  4.890092996079e+02   1.755966010969e+02   6.701527762440e+01 
8
Step 9000
1 1  3.286058644586e+02  -5.630378109287e+01   8.333074281445e+01 
2 1 -3.591022576755e+02   1.088996469178e+01   3.328884921138e+01 
3 1  7.862070651252e+01   3.959589730194e+02   2.027455649364e+01 
4 1 -5.851477272071e+02  -2.293214569008e+02   4.370465367721e+01 
5 1 -1.427985085750e+02  -1.539300851711e+02   3.617539254924e+02 
6 1  7.708019004577e+02   4.322321800552e+01  -2.015891652240e+02 
7 1  3.053091783848e+02  -1.263212968409e+02  -4.828374303616e+01 
8 1 -3.806735492255e+02   4.712943283031e+01  -1.948512604555e+02 
8
Step 10000
1 1 -4.167791870648e+02   1.013566925249e+02   2.026420723741e+01 
2 1  3.789536096748e+02   3.506180158924e+01   1.293294929684e+02 
3 1 -2.182753231223e+02  -5.594540222231e+02  -1.058392702681e+02 
4 1  6.579529571977e+02   1.130080831179e+02   2.647491589581e+02 
5 1 -4.652822055989e+01   5.081331340115e+01  -5.736303176814e+02 
6 1 -5.865121485912e+01   2.444047954631e+02  -9.943059635335e+01 
7 1 -1.856474896097e+02  -2.352649425432e+02  -2.862949734090e+02 
8 1 -3.339779308979e+00   5.296895772392e+01   6.496262649122e+02 
8
Step 11000
1 1  2.629317892098e+02  -2.196945644461e+02   1.071302517783e+01 
2 1 -1.137156646905e+02  -1.400019298941e+02  -3.006351135391e+02 
3 1  2.380129911494e+02   7.169191624788e+02   3.524157572212e+02 
4 1 -5.218350431051e+02  -1.990584161971e+02  -6.483079521265e+02 
5 1  3.859215486928e+02   8.801587893333e+01   5.946116804478e+02 
6 1  1.169800967051e+02  -5.178380224684e+02   3.687065222445e+01 
7 1 -1.355050444187e+02  -2.588775323317e+00   4.240518196915e+02 
8 1 -1.231249851825e+01   2.165863674621e+01  -4.544811190730e+02 
8
Step 12000
1 1 -1.578369183817e+02   9.438528450291e+01  -2.188878230588e+02 
2 1 -1.730614053452e+01   8.513256296448e+00   3.393540362408e+02 
3 1 -3.141522566073e+02  -7.209261039658e+02  -2.604473345353e+02 
4 1  7.134196049049e+02   4.107848056823e+01   5.012099916150e+02 
5 1 -3.327905074164e+02  -3.648364700462e+02  -4.384881272339e+02 
6 1 -5.082246969138e+02   4.814398233463e+02   1.044897744433e+01 
7 1  4.422253217565e+02   4.896401090313e+01  -5.293891764964e+02 
8 1  3.765978242789e+02   3.367390617364e+02   4.797067009572e+02 
8
Step 13000
1 1  1.206571132603e+01  -2.002859822736e+01   2.930385795712e+02 
2 1  9.453698599323e+01   6.180046935664e+01  -5.108607793618e+02 
3 1  3.477272185571e+02   7.152563983788e+02   7.840491542457e+01 
4 1 -3.440888447151e+02  -2.766463917596e+02  -2.194707957031e+02 
5 1 -2.160699447226e+02   2.014148156236e+02   6.231945568783e+02 
6 1  3.405112633546e+02  -6.577565908951e+02  -3.184002334193e+02 
7 1  1.988092056148e+02   2.346129338492e+02   2.720344470675e+02 
8 1 -4.051459767344e+02  -2.925204323634e+02  -3.206077488722e+02 
8
Step 14000
1 1  1.225868651120e+02   1.986866221160e+01  -2.201943418069e+02 
2 1 -6.072272357875e+01   2.704426602976e+01   3.348091735301e+02 
3 1 -1.940198209881e+02  -6.468615630609e+02   6.808495048129e+00 
4 1  3.773705559719e+02  -1.300532431681e+02   2.917027672919e+02 
5 1 -3.641971795706e+01  -3.544297078202e+01  -5.597227017606e+02 
6 1  9.289010249581e+00   7.911625104642e+02  -1.639025353598e+02 
7 1  4.477509264684e+00  -2.743235798615e+02  -2.124734511547e+02 
8 1 -3.719606739462e+01   1.029748738354e+02   4.822907269656e+02 
8
Step 15000
1 1 -2.873579391593e+02  -4.249422584692e+01   1.443808320240e+02 
2 1  3.334420361248e+02   9.013402818622e+00  -3.842969766468e+02 
3 1  1.717205196958e+02   2.307446119371e+02   3.688372709639e+01 
4 1 -1.499223932190e+02   2.039795881958e+02  -2.168693609910e+02 
5 1  1.055973370756e+02   3.000807952854e+02  -1.098440872824e+01 
6 1  1.982085993432e+02  -7.956616356759e+02   1.462427846264e+02 
7 1 -2.195736087575e+02  -2.162668816009e+02   5.437741837799e+02 
8 1 -3.729640258071e+01   3.245181446238e+02  -3.541456276829e+02 
8
Step 16000
1 1  3.172317540148e+02  -6.344917867161e+01  -3.430045773158e+02 
2 1 -3.160970340416e+02  -5.940141906186e+01   2.973287189565e+02 
3 1 -7.412977397002e+01   8.016287711222e+01   2.392041085480e+02 
4 1 -4.869138329016e+01  -1.815661952545e+02  -2.861661738467e+02 
5 1  2.007225892814e+02  -2.091195993036e+02   1.308440032764e+02 
6 1 -2.741835979262e+02   1.325831946725e+02   3.000092304339e+02 
7 1 -4.750091564005e+01   2.151507267583e+02  -3.151565496119e+02 
8 1  2.400392668567e+02   1.169365355356e+02  -5.536016311704e+01 
8
Step 17000
1 1 -4.470551337630e+02   1.452725535094e+02   3.367470678912e+02 
2 1  4.128290782036e+02   1.318728553653e+02  -2.672080764661e+02 
3 1 -3.012022906473e+01  -1.545208368522e+02  -4.412422787497e+02 
4 1  3.920851212353e+02   1.600887332024e+02   6.289162708826e+02 
5 1 -2.259402364150e+02  -1.101340181673e+02  -2.408120765561e+02 
6 1 -9.277533176684e+01  -8.720162837127e+01  -2.270018671858e+01 
7 1  1.632339859319e+02   2.092813246408e+02  -1.818367335356e+02 
8 1 -2.343389439220e+02  -2.466986530385e+02   1.642154869849e+02 
8
Step 18000
1 1  5.211142893371e+02  -1.623044432547e+02  -1.802265853513e+02 
2 1 -3.117820798121e+02  -1.496505156022e+02   1.752798938756e+02 
3 1  1.222995655743e+02   4.196512118854e+02   3.295409001529e+02 
4 1 -3.583485181637e+02  -5.195057384599e+02  -5.455321730526e+02 
5 1  1.800021658577e+01   2.447272058455e+02   3.769539153912e+02 
6 1  1.108302028990e+02   2.987196574374e+02  -4.028218199783e+02 
7 1  2.494670692861e+01  -4.684183228863e+01   3.648702450368e+02 
8 1 -1.729750837061e+01  -1.704204622624e+02  -5.231494302176e+01 
8
Step 19000
1 1 -4.942107711538e+02   2.539824238471e+02   8.496438505670e+01 
2 1  2.774229093758e+02   1.228745160205e+02  -1.089264602493e+02 
3 1 -1.234877955190e+02  -6.559852343736e+02  -2.067157389462e+02 
4 1  3.801917116686e+02   3.671200668742e+02   5.006848284829e+02 
5 1  2.446707381255e+01   7.539588021421e+01  -6.651755240564e+02 
6 1  1.475794719829e+02  -2.501486431270e+02   4.162748980763e+02 
7 1 -1.319868193426e+02  -2.752544920807e+02   1.067542286733e+02 
8 1 -8.911982701186e+01   4.829514067657e+02  -1.610056604143e+02 
8
Step 20000
1 1  3.954366443302e+02  -2.657389763551e+02  -7.403805837686e+01 
2 1 -1.628005377029e+02  -1.623869353055e+02  -9.167503375290e+01 
3 1  1.744805912632e+02   7.764340771543e+02   4.184377670330e+02 
4 1 -5.186121191491e+02  -1.105529220243e+02  -7.825005806127e+02 
5 1 -5.145984958323e+01   6.380700381778e+01   7.245815006043e+02 
6 1  6.313515612053e+01  -3.244897242827e+02  -4.288414769392e+01 
7 1 -2.631880989274e+02   2.656425520465e+02   1.071145278996e+02 
8 1  2.000248352563e+02  -2.244071934356e+02  -1.997747962596e+02 
8
Step 21000
1 1 -3.085257528882e+02   1.856678878588e+02  -6.084836714088e+01 
2 1  2.767016010268e+00   2.706952754852e+02   1.568826671045e+02 
3 1 -1.722563095212e+02  -7.648047221430e+02  -2.362213707487e+02 
4 1  5.861166565865e+02   1.992873699162e+02   8.011910077049e+02 
5 1  2.723652497051e+02  -4.183738856452e+02  -8.426449017325e+02 
6 1 -2.150614931967e+02   2.880263407746e+02   3.300800658596e+02 
7 1 -2.421025553340e+02   2.349159909741e+02  -3.988112033158e+02 
8 1  6.414047778507e+01  -3.552598254533e+01   3.162813074190e+02 
8
Step 22000
1 1  1.009036732669e+02  -1.522317481916e+02   2.179246004692e+02 
2 1  2.382187447826e+02  -1.266263322476e+02  -1.857718847942e+02 
3 1  1.852870445300e+02   6.364713613992e+02   2.416715610116e+02 
4 1 -5.251248437738e+02  -2.046825675721e+02  -6.183747771190e+02 
5 1 -3.940429318639e+02   8.005317638808e+00   7.647015276717e+02 
6 1 -1.253485672953e+02   3.014000131488e+01  -3.889136606803e+02 
7 1  4.840737416159e+02   6.377582472779e+01   1.677314364758e+02 
8 1  5.152596602773e+01  -2.761660382376e+02  -1.597190905039e+02 
8
Step 23000
1 1  3.116939507263e+01   1.934918047513e+02  -2.728986520796e+02 
2 1 -2.721663458948e+02   4.607529825534e+01   3.934958117668e+02 
3 1 -2.301282784507e+02  -5.943167516129e+02  -1.119714407576e+02 
4 1  3.277302243944e+02  -1.252109995577e+02   4.430586274442e+02 
5 1  3.841351047996e+02   1.726180928081e+02  -6.826152737156e+02 
6 1  3.032207255266e+02   1.191600345378e+02   2.481227780348e+02 
7 1 -2.218352720610e+02  -2.935767083251e+02   1.116525401430e+02 
8 1 -3.424807770861e+02   5.317781222464e+02  -1.354651760160e+02 
8
Step 24000
1 1 -1.789802678389e+02  -1.516010034065e+02   3.616234160413e+02 
2 1  3.878148965917e+02   4.209799523287e+00  -4.049327867666e+02 
3 1  1.294668181872e+02   3.417549503454e+02  -1.532809129744e+02 
4 1 -1.784971707594e+02   1.524478675354e+02  -1.243552003084e+02 
5 1 -3.032739959701e+02   2.071364996884e+02   3.148900614349e+02 
6 1  4.950269703905e+01  -5.461993806432e+02   5.456560081294e+01 
7 1 -2.519208530897e+02   1.116339311663e+02   1.140715164817e+02 
8 1  1.693328250831e+02  -1.193610599301e+02  -1.376634942906e+02 
8
Step 25000
1 1  2.974999056653e+02  -3.989450604987e+01  -2.962137963994e+02 
2 1 -4.204385035089e+02  -7.038042907882e+01   3.812785219749e+02 
3 1 -1.293947949268e+02  -2.311625767356e+01   2.445981668384e+02 
4 1  3.974838342017e+01  -1.503840745455e+01  -2.658045846967e+02 
5 1  4.034167249993e+02  -5.922414711962e+01   1.702487560860e+00 
6 1  2.308155155873e+02   9.541104891718e+01  -6.157715933269e+01 
7 1 -3.624885236787e+02   4.748692196151e+01   9.807027939695e+01 
8 1 -4.541644405611e+01  -3.328343628425e+01  -4.744316420852e+01 
8
Step 26000
1 1 -4.761333841462e+02   1.397755473811e+02   3.412952139635e+02 
2 1  4.254657593034e+02   2.228705262074e+02  -3.835001312820e+02 
3 1  1.271043465170e+02  -5.484925895534e+01  -2.074079043486e+02 
4 1  2.411268050668e+02   1.358017078056e+02   4.702457486932e+02 
5 1 -3.555971324439e+02  -2.212837653896e+02  -2.611684367323e+02 
6 1 -5.583860478457e+02  -1.738618468471e+02   1.966200238657e+02 
7 1  3.160981778989e+02   1.427152781557e+02  -3.264795773347e+02 
8 1  1.811934421023e+02  -9.177642773431e+01   1.054562942546e+02 
8
Step 27000
1 1  4.726469361563e+02  -9.289395129600e+01  -3.265057774670e+02 
2 1 -3.758788177225e+02  -1.990827277919e+02   3.176178569008e+02 
3 1  7.233305940345e+01   2.721183679473e+02   3.960531222145e+02 
4 1 -5.134329156811e+02  -1.650274608335e+02  -7.198090527180e+02 
5 1  1.212221965238e+02   1.541716254988e+02   3.827831180432e+02 
6 1  4.782617007727e+02   3.178538442698e+02  -2.841217425943e+02 
7 1  1.570375580616e+02  -3.623698883286e+02   3.683698228967e+02 
8 1 -4.429286971771e+02   5.695637225888e+01  -1.294216120553e+02 
8
Step 28000
1 1 -5.100199861754e+02   1.712142512760e+02   2.074658679200e+02 
2 1  3.084151079935e+02   2.377334245119e+02  -2.322533067321e+02 
3 1 -5.926995958627e+01  -4.760386415512e+02  -5.080225623193e+02 
4 1  4.104113351403e+02   2.108062047831e+02   8.726374929374e+02 
5 1  3.719021368507e+01   2.627040030593e+02  -7.191096789983e+02 
6 1  1.686679636381e+02  -5.040444783573e+02   4.757277671723e+02 
7 1 -5.038131987298e+02  -2.382333133254e+02  -5.710954721599e+01 
8 1  1.166877914326e+02   3.598732109428e+02  -6.453276798215e+01 
8
Step 29000
1 1  4.409266224705e+02  -2.463016693026e+02  -8.008385534344e+01 
2 1 -1.980053641711e+02  -2.353803163636e+02   1.460614471604e+02 
3 1  4.803843801216e+01   6.188544939606e+02   3.918877687000e+02 
4 1 -5.027034752557e+02   3.096290512816e+00  -1.047313442357e+03 
5 1  8.965508777634e+01  -1.860888782001e+01   7.836134094390e+02 
6 1  3.105658970958e+02  -1.320545878176e+01  -1.419085934013e+02 
7 1  7.993527686156e+01  -1.085681139053e+02   2.149201043776e+02 
8 1 -2.062482330686e+02  -6.939728215346e+01  -2.429862317319e+02 
8
Step 30000
1 1 -3.921397237743e+02   2.387828623166e+02   4.118487125241e+01 
2 1  7.562734780405e+01   2.952829026120e+02  -8.977925791711e+01 
3 1 -9.750552027630e+01  -5.831308623254e+02  -3.484650174222e+02 
4 1  6.567652682907e+02   6.011667127776e+01   1.067292816172e+03 
5 1 -2.344048866328e+01  -1.933453513460e+02  -8.372970738420e+02 
6 1 -5.755609715786e+02   1.889785140614e+02  -1.758403617486e+01 
7 1  3.509053165705e+02   2.299751019342e+02  -2.892507372652e+02 
8 1  2.959468909308e+01  -1.176690893371e+02   3.866690648361e+02 
8
Step 31000
1 1  1.790433202337e+02  -1.141050647144e+02   3.763306536200e+01 
2 1  5.509199133346e+01  -1.675393113064e+02  -1.556947711560e+00 
3 1  1.311641001462e+02   5.794576594802e+02   3.737240337416e+02 
4 1 -4.626695313938e+02   1.022754098796e+02  -9.664383822110e+02 
5 1 -1.173380996677e+02  -5.514347381586e+01   6.811483361710e+02 
6 1  1.026066655224e+02  -9.109684082169e+01  -1.213371468940e+02 
7 1  4.521350318623e+02  -1.252867780274e+02   1.339167065274e+02 
8 1 -3.750528950238e+02  -8.044968179903e+01  -1.676483923396e+02 
8
Step 32000
1 1 -8.202595475956e+01   1.516518563247e+02  -2.564318774491e+02 
2 1 -1.875034115481e+02   8.671993621492e+01   1.827392735151e+02 
3 1 -7.446331199134e+01  -5.185018708290e+02  -1.483243810476e+02 
4 1  3.735918557062e+02  -2.095354578605e+02   7.481249990251e+02 
5 1  7.183050914689e+01   1.972913421104e+02  -7.693032880217e+02 
6 1  2.878123718212e+02   3.519011744597e+02   5.619523026757e+01 
7 1 -2.309368498970e+02  -2.454393228065e+02   8.071064720290e+01 
8 1 -9.277542083132e+01   1.962924017540e+02   9.160362476844e+01 
8
Step 33000
1 1 -5.513944100633e+01  -2.040149564686e+02   3.773843002716e+02 
2 1  2.501373914145e+02  -4.287574139539e+01  -2.771149899302e+02 
3 1  1.376756720166e+02   3.413230648058e+02  -8.720578246814e+01 
4 1 -4.657422097244e+02   3.127058664131e+02  -5.178749751951e+02 
5 1 -2.019150446905e+02   2.087732068761e+02   4.573709110272e+02 
6 1  2.186839513417e+02  -4.490758795848e+02   3.552942637972e+02 
7 1  1.012964749516e+02  -1.841492673062e+02  -8.249236836644e+01 
8 1  4.804883119030e+01  -2.005753172970e+01  -2.047828340757e+02 
8
Step 34000
1 1  2.060106227929e+02   1.582761726877e-01  -3.584378793827e+02 
2 1 -3.006687305097e+02  -6.501259025385e+01   2.570039348735e+02 
3 1 -8.436126123181e+01  -1.624435437146e+02   1.838654678597e+02 
4 1  7.138717439971e+01  -2.700916449629e+02   1.342397050737e+02 
5 1  4.470696178149e+02  -3.307365963658e+01  -2.986990737373e+00 
6 1 -2.301070481414e+02   2.246207263523e+02  -3.735308843223e+02 
7 1 -1.696287430903e+02   3.729129714952e+02  -5.489034436554e+01 
8 1  2.070002864509e+02  -9.284510221958e+01   2.215420400447e+02 
8
Step 35000
1 1 -3.854047369846e+02   1.159590807399e+02   3.137050273482e+02 
2 1  3.270623507625e+02   1.488645114667e+02  -2.601188680377e+02 
3 1  9.770019007280e+01  -7.791706326612e+01  -2.535876386672e+02 
4 1  1.650643302977e+02   4.502556081959e+02   2.062649914625e+02 
5 1 -2.947902374814e+02  -2.206333894718e+02  -2.025066886576e+02 
6 1 -1.828733335229e+02  -2.238751646448e+02   2.110664300453e+02 
7 1  5.078123306972e+02   1.219136098600e+01  -1.202371797332e+02 
8 1 -2.973100421977e+02  -1.241283613726e+02   6.388275054308e+01 
8
Step 36000
1 1  3.911317426639e+02  -6.757336805911e+01  -4.224024626792e+02 
2 1 -2.893457649082e+02  -2.856992072940e+02   2.960476200538e+02 
3 1 -5.614919664570e+01   1.717371346389e+02   4.807865335680e+02 
4 1 -1.957335306327e+02  -2.419324907159e+02  -5.479304050028e+02 
5 1  1.242374496723e+02  -1.032351909977e+02   2.922822538379e+02 
6 1  3.128246138286e+02   7.497225891622e+02  -4.697381364406e+02 
7 1  2.018928042964e+02  -9.610357481784e+01   3.081587798722e+02 
8 1 -4.125610596437e+02  -1.895202691600e+02   9.876693836459e+01 
8
Step 37000
1 1 -3.584479239115e+02   3.521331231897e+01   3.390443667723e+02 
2 1  3.002232728191e+02   2.069107387311e+02  -2.148898547317e+02 
3 1  9.005481388097e+01  -3.640279867144e+02  -4.782857986401e+02 
4 1  1.520353583547e+02   1.211436319928e+02   6.671134081962e+02 
5 1 -1.768904482324e+02   1.968538314314e+02  -5.690293732946e+02 
6 1  1.770388574035e+02  -2.708921236734e+02   4.036045513009e+02 
7 1 -2.800453269606e+02  -3.873585814686e+02  -1.682755146044e+02 
8 1  9.474495220309e+01   4.598847302141e+02   2.512801472221e+01 
8
Step 38000
1 1  4.461899735929e+02  -2.016988414618e+02  -1.724421558586e+02 
2 1 -1.485100334879e+02  -3.063112435457e+02   1.428629902618e+02 
3 1 -3.377729151352e+01   4.368462752046e+02   3.870552500024e+02 
4 1 -4.391257485145e+02  -1.265391714119e+01  -9.027423699912e+02 
5 1  2.300401883089e+02  -2.022530117055e+02   8.662138403798e+02 
6 1  4.740747639101e+02   2.428613041349e+02  -1.176643570318e+02 
7 1 -4.376335661213e+02  -2.296627359425e+02   1.667151805105e+02 
8 1 -4.446993521477e+01   1.791590322808e+02  -3.112097988584e+02 
8
Step 39000
1 1 -3.552184872471e+02   1.128150976426e+02   1.601801488679e+02 
2 1  4.368440624857e+01   2.664552140015e+02  -6.754763223285e+01 
3 1 -1.363930537841e+01  -4.890978590218e+02  -4.059464525323e+02 
4 1  4.606844155722e+02   2.486848741857e+01   9.644297995289e+02 
5 1 -7.364468761125e+01  -6.379960173658e+00  -8.340098452333e+02 
6 1 -5.948232236662e+02  -3.600915981773e+02  -8.010898461797e+01 
7 1  2.231005151917e+02   7.239607239127e+02  -2.088488644069e+02 
8 1  3.066894595509e+02  -2.785058338506e+02   4.774127528130e+02 
8
Step 40000
1 1  2.384129359953e+02  -7.066110272651e+01  -3.110619575425e+01 
2 1  8.726317488673e+01  -2.283026484409e+02  -3.350313542698e+01 
3 1  5.118128154689e+01   3.110914448753e+02   4.180309124171e+02 
4 1 -3.617086407883e+02   1.549430450041e+02  -8.169567181737e+02 
5 1  4.633650920400e+01  -2.728984176116e+02   8.405880812022e+02 
6 1  9.941957673365e+01   4.827646160848e+02  -2.407664191580e+02 
7 1  1.341880412110e+02  -2.224683923166e+02   2.319966176291e+02 
8 1 -2.719005298854e+02  -2.225648177460e+02  -3.270948943394e+02 
8
Step 41000
1 1 -1.255088415960e+02   1.783832260779e+02  -1.722528561010e+02 
2 1 -1.351042115750e+02   1.819496454399e+02   2.552251396952e+02 
3 1 -8.006975180339e+01  -4.078920090745e+02  -1.279981747783e+02 
4 1  4.678304654988e+02  -1.982053253295e+02   9.358197953534e+02 
5 1 -3.645799613599e+01   1.959933995731e+02  -8.299750156032e+02 
6 1  5.730136053002e+01   1.050174224652e+02   4.110540495774e+01 
7 1 -7.898961524708e+01  -2.291285237366e+02   2.348227548345e+01 
8 1 -1.163237729144e+02   1.403633187570e+02  -1.000571853584e+02 
8
Step 42000
1 1  7.130454224885e+01  -1.486396037725e+02   3.234298925498e+02 
2 1  2.582078514358e+02  -1.053766696844e+02  -2.050424868437e+02 
3 1  6.024766660469e+01   3.272069473193e+02   8.752870963110e+01 
4 1 -4.288464182361e+02   4.388471117359e+02  -6.717080788904e+02 
5 1 -2.719644633398e+02  -2.600999302250e+02   6.131528006412e+02 
6 1  2.820133814074e+02  -1.993511033033e+02   3.083439570630e+02 
7 1 -2.252076167229e+02  -1.652173038605e+02  -1.071049378917e+02 
8 1  2.166665294098e+02   1.114019314255e+02  -3.448887731117e+02 
8
Step 43000
1 1  6.505868109268e+01   1.030344892222e+02  -3.513793531482e+02 
2 1 -3.220657185302e+02   9.231025723409e+01   2.612998590287e+02 
3 1 -1.631080977529e+02  -1.188209178608e+02   5.213666559344e+00 
4 1  1.546582287808e+02  -6.067978254266e+02   4.756551343083e+02 
5 1  4.031992062504e+02   2.880703932363e+02  -3.685660745487e+02 
6 1 -2.830774680072e+01   1.341428894337e+02  -1.697345268440e+02 
7 1 -7.386487638072e+01   3.069734128422e+02  -1.142607759640e+02 
8 1 -4.714629934088e+01  -1.033998703885e+02   2.005139285152e+02 
8
Step 44000
1 1 -2.414086148731e+02   2.818981963967e+01   3.986273171317e+02 
2 1  2.956650005597e+02   1.254913682806e+02  -3.260978675809e+02 
3 1  1.272067013446e+02   9.726853682581e+01  -2.075539860365e+02 
4 1 -1.992399929696e+01   5.986347718768e+02  -4.443780386170e+01 
5 1 -3.264245828275e+02  -1.997242960564e+02   1.785072391947e+02 
6 1 -2.759126361997e+02  -3.159406792837e+02   1.443699618573e+02 
7 1  6.120750878830e+01   2.152604650032e+02  -3.617902943763e+01 
8 1  2.625678887006e+02  -4.341165690004e+02  -1.716229944085e+02 
8
Step 45000
1 1  2.791298774166e+02   6.408785357212e+01  -4.904988267501e+02 
2 1 -3.158744150616e+02  -1.017816530131e+02   3.756954415390e+02 
3 1 -1.198791292757e+02  -1.039950888329e+01   3.385909193006e+02 
4 1 -5.388916195558e+01  -4.631509797530e+02  -1.542189089083e+02 
5 1  3.283267862270e+02   1.186770342729e+02   2.387444725544e+02 
6 1 -1.033176148484e+02   6.223979299321e+02  -5.096876524103e+02 
7 1  2.812582289537e+02  -1.103207448618e+02   3.340746037215e+02 
8 1 -2.737572658786e+02  -7.791206792722e+01  -1.619781784880e+02 
8
Step 46000
1 1 -3.783195160164e+02   3.537464742700e+01   3.825389109914e+02 
2 1  2.538185275305e+02   1.271813321436e+02  -3.164509122985e+02 
3 1  1.084149786136e+02  -5.431873680626e+00  -3.619612315070e+02 
4 1  2.457100254223e+02   4.251018331926e+02   5.945615542117e+02 
5 1 -3.921345574176e+02  -3.165077162721e+01  -4.567475198819e+02 
6 1 -1.991970261385e+02  -4.469597687158e+02   3.425035347309e+02 
7 1  1.847733843895e+02  -3.053676790979e+01  -9.804326133249e+01 
8 1  1.572310573676e+02  -4.194163869343e+01  -1.049793745966e+02 
8
Step 47000
1 1  4.256227842205e+02  -1.000593631291e+02  -4.171749253813e+02 
2 1 -2.872724314141e+02  -2.143631746346e+02   2.918479509354e+02 
3 1 -2.637579976540e+02   2.469969638940e+02   4.415186408502e+02 
4 1 -5.654237572750e+02  -5.003256448952e+02  -7.258613022246e+02 
5 1  5.045289454681e+02  -7.730571524994e+01   5.930363280069e+02 
6 1  4.736739414110e+02   3.798831240649e+02  -1.452308299074e+02 
7 1 -4.170777904413e+02   1.059271546067e+02  -9.362823028445e+01 
8 1  2.612580352439e+02   1.137142779796e+02   7.244200800831e+01 
8
Step 48000
1 1 -4.021231244710e+02   1.434053399203e+02   2.788899736872e+02 
2 1  1.630724925300e+02   2.145279237065e+02  -1.842582944502e+02 
3 1  9.700524470795e+01  -1.859430277212e+02  -4.919219499547e+02 
4 1  4.263263659205e+02   1.346990450975e+02   5.780252658424e+02 
5 1 -1.569186467128e+02   3.933333088140e+02  -7.337632796184e+02 
6 1 -2.841625281247e+02  -3.124250944590e+02   2.872006584721e+02 
7 1  1.298866148180e+02   1.148757126915e+02  -9.638634444970e+01 
8 1  2.279952804488e+01  -3.547781738128e+02   2.678732099808e+02 
8
Step 49000
1 1  4.300281470072e+02  -2.362083127722e+02  -1.232098444158e+02 
2 1 -9.941048398016e+00  -1.729192133493e+02   8.171440705353e+00 
3 1 -6.348769418939e+01   2.741159491165e+02   3.755324629336e+02 
4 1 -4.111908015729e+02   2.196076363034e+02  -7.522222705975e+02 
5 1  8.140957480672e+01  -2.651122512412e+02   7.057492351432e+02 
6 1 -2.907616313074e+02  -1.276046189747e+01  -1.864680185726e+02 
7 1  1.229279797378e+02   4.910848500778e+02   7.968983966820e+01 
8 1  1.722453023856e+02  -3.455516845460e+02  -7.917871443087e+01 
8
Step 50000
1 1 -3.384761513799e+02   1.825216831396e+02  -6.495767167290e+01 
2 1 -7.572060537464e+01   1.394330330145e+02  -1.805552901454e+00 
3 1  4.135147677803e+01  -2.967448739331e+02  -3.645564588157e+02 
4 1  6.688781193052e+02  -2.185669619155e+02   9.963377084293e+02 
5 1  4.993511735638e+01   1.208057137838e+02  -6.305764296807e+02 
6 1 -2.235682705659e+02   2.602090754290e+01  -1.307789943549e+02 
7 1  1.592858166497e+02  -6.953975394290e+01  -1.058808349183e+02 
8 1 -3.113763163556e+02   2.454436440431e+02   2.222851171433e+02 
8
Step 51000
1 1  1.559226018544e+02  -1.850151985804e+02   1.912426177654e+02 
2 1  1.903750318781e+02  -8.440056719141e+01  -1.839945636097e+02 
3 1 -4.578917108398e+01   2.287595277043e+02   2.969334453410e+02 
4 1 -5.539645659915e+02   3.849668890095e+02  -6.819226068193e+02 
5 1 -2.911215434768e+02  -3.112560625552e+02   5.015024350190e+02 
6 1  6.267963306257e+02  -2.318304469744e+01   4.683901722036e+01 
7 1 -1.782295497782e+02   2.416203524526e+02   2.511694720764e+02 
8 1  1.262182523802e+02  -3.423777816588e+02  -3.660519304088e+02 
8
Step 52000
1 1  1.145109518868e+01   1.614967961406e+02  -3.237553159323e+02 
2 1 -2.112746792418e+02  -2.232603149643e+01   3.058972709135e+02 
3 1 -9.266140097670e+01  -2.034814889820e+02  -6.978508815863e-01 
4 1  4.315570063256e+02  -4.716206314676e+02   5.400892883834e+02 
5 1  3.759153048233e+02   4.832532013146e+01  -6.371304033215e+02 
6 1 -2.152445862544e+02   2.487578086240e+02  -9.758291270257e+01 
7 1 -3.088286300671e+02  -2.172129478160e+02  -1.661379779836e+02 
8 1  1.849683279577e+02   3.673286751764e+02   4.207542579668e+02 
8
Step 53000
1 1  1.542201339421e+01  -1.829593407178e+02   3.687917553454e+02 
2 1  3.028526309341e+02   2.904131553269e+01  -2.661203606950e+02 
3 1  8.394984887010e+01   1.161181430223e+02  -5.451568142820e+00 
4 1 -3.547580984343e+02   3.911772262757e+02  -5.783702822487e+02 
5 1 -1.621476813025e+02   1.000790747747e+02   3.472092470296e+02 
6 1 -1.078724213595e+02  -3.950375772572e+02   5.698663630431e+02 
7 1 -2.201985042022e+02   3.251381792263e+02  -1.843107713265e+02 
8 1  4.354293105639e+02  -4.232413839855e+02  -2.252601087463e+02 
8
Step 54000
1 1  1.739980964994e+02   2.241676303034e+01  -4.198063505152e+02 
2 1 -2.984802195959e+02  -1.411250529162e+02   2.839687785383e+02 
3 1 -1.921548210919e+02   1.992229632053e+01   1.406676958833e+02 
4 1  2.190503976578e+02  -4.969116399592e+02   1.308441107947e+02 
5 1  7.086602525743e+02  -7.080623756058e+01   1.137891056393e+02 