8
Step 0
1 1  2.847717345077e+02  -8.552029749664e+01  -1.276140599868e+02 
2 1 -2.317894074601e+02  -2.539882721922e+02   2.346897676519e+02 
3 1 -2.350098000602e+02  -1.307547283285e+02   2.635093922833e+02 
4 1 -1.692987193033e+02  -9.529920617174e+00   1.964631093627e+02 
5 1  2.323091173866e+02  -1.435322582653e+02   1.693901807588e+02 
6 1  4.654235617470e+02   5.104319094571e+02  -1.674137158823e+02 
7 1  1.922295072350e+01  -2.024048829196e+02  -3.903721119857e+01 
8 1 -7.246404150530e+01  -2.529581708650e+02   3.047554722872e+02 
8
Step 1000
1 1  4.094147630924e+02  -2.415749830613e+02  -8.149767868861e+01 
2 1  3.136836084546e+01  -4.907444748640e+02  -2.617768840325e+01 
3 1 -3.147405393848e+02   1.020390928887e+02   2.198797704689e+02 
4 1 -1.962624658290e+02   9.302692774788e+00  -7.950623863801e+01 
5 1  1.797444764402e+02  -6.000202007982e+01   2.736703779312e+02 
6 1  4.283253531810e+02   2.157460373037e+02   8.902337013452e+01 
7 1 -1.105651443876e+02  -2.513309882636e+02   1.202283360819e+02 
8 1 -8.051911367655e+01  -4.390288806918e+02   1.687062506158e+01 
8
Step 2000
1 1  3.852999442977e+02  -2.988081192260e+02   1.991324797713e+01 
2 1  2.753336801031e+02  -5.040335103157e+02  -2.946462171209e+02 
3 1 -3.056733353722e+02   2.917555912264e+02   7.712832419866e+01 
4 1 -1.770258816255e+02   2.893265722094e+01  -2.982935343330e+02 
5 1  3.398838094549e+01   4.656920557146e+01   2.365012849730e+02 
6 1  2.266023437214e+02  -1.046541913166e+02   3.039174550850e+02 
7 1 -1.710172075095e+02  -1.937846954675e+02   2.441674601165e+02 
8 1 -7.339122498264e+01  -4.716191472483e+02  -2.786239181746e+02 
8
Step 3000
1 1  2.040255821567e+02  -2.479346195415e+02   1.303525621743e+02 
2 1  3.650945614807e+02  -2.595016820187e+02  -4.483170751441e+02 
3 1 -2.040461111997e+02   3.765077470254e+02  -7.893697768271e+01 
4 1 -1.314430309263e+02   5.353831243856e+01  -3.761109948854e+02 
5 1 -1.318925009470e+02   7.861709925237e+01   7.791413850537e+01 
6 1 -7.074889582453e+01  -3.186983328232e+02   3.970874813135e+02 
7 1 -1.477078013850e+02  -5.852449997884e+01   2.953697196695e+02 
8 1 -7.868258597685e+01  -3.086040422306e+02  -4.323833245348e+02 
8
Step 4000
1 1 -6.361340915126e+01  -1.122347809876e+02   1.883692127536e+02 
2 1  2.640333391285e+02   1.139363306754e+02  -4.146294839361e+02 
3 1 -4.298261823150e+01   3.347450316498e+02  -1.713401480504e+02 
4 1 -7.281634245755e+01   7.777319930288e+01  -3.045371951549e+02 
5 1 -2.629212905121e+02   2.284369520500e+01  -9.550901696633e+01 
6 1 -3.492251017491e+02  -3.560431442387e+02   3.483968731874e+02 
7 1 -7.366931718639e+01   8.721405742752e+01   2.605750138614e+02 
8 1 -7.327589140755e+01  -3.966818619061e+01  -3.899430123180e+02 
8
Step 5000
1 1 -3.061244259688e+02   2.628465836903e+01   1.845376438969e+02 
2 1  4.654598608080e+01   4.333052190491e+02  -2.292757150928e+02 
3 1  1.231556510095e+02   1.948084809682e+02  -1.692370812182e+02 
4 1 -9.561112242649e-01   8.493397883039e+01  -1.475235841611e+02 
5 1 -3.237003489608e+02  -4.680974192994e+01  -1.945795401069e+02 
6 1 -5.030059230868e+02  -2.429079714806e+02   1.992790084262e+02 
7 1 -1.932342804512e+00   1.813930533623e+02   1.549639697356e+02 
8 1 -2.952795404802e+01   1.870590758796e+02  -1.964699673297e+02 
8
Step 6000
1 1 -4.235375861420e+02   1.015050130097e+02   1.133735053654e+02 
2 1 -1.715923652238e+02   5.571842974422e+02   2.059233690473e+01 
3 1  2.459199709421e+02   9.968219093421e+00  -8.415824578432e+01 
4 1  8.231882551709e+01   5.688359806266e+01   9.509134341751e+00 
5 1 -2.590713068906e+02  -1.013645057038e+02  -2.028124956322e+02 
6 1 -4.809554303492e+02  -6.778276567923e+01   1.860446281041e+01 
7 1  3.176780552835e+01   1.980660466963e+02   1.203494226354e+01 
8 1  2.061490780252e+01   3.181858486650e+02   6.476017401414e+01 
8
Step 7000
1 1 -3.659980637227e+02   1.080351220270e+02  -2.192884651877e+01 
2 1 -2.980049823971e+02   4.275933900566e+02   2.463960735078e+02 
3 1  2.924224951877e+02  -1.602057937714e+02   2.650930307225e+01 
4 1  1.624864929913e+02  -1.076923704341e+01   1.040562408789e+02 
5 1 -9.823560742215e+01  -9.731068142401e+01  -1.143893157262e+02 
6 1 -2.976437126203e+02   7.610086058935e+01  -1.302944968542e+02 
7 1  2.038136854495e+01   1.506300885714e+02  -1.269257655929e+02 
8 1  8.393982951091e+01   3.197231827165e+02   2.743318654926e+02 
8
Step 8000
1 1 -1.627895014209e+02   6.733012320386e+01  -1.638952778910e+02 
2 1 -2.818662223444e+02   1.045215230551e+02   3.701283508496e+02 
3 1  2.501834596987e+02  -2.726946011734e+02   9.323069075575e+01 
4 1  2.105012053321e+02  -9.937449359597e+01   1.168785091533e+02 
5 1  8.672015735869e+01  -1.031895933373e+01   1.650441047059e+01 
6 1 -2.276478325113e+01   1.314903947515e+02  -2.094314277499e+02 
7 1 -1.275545091625e+01   7.702383196314e+01  -2.230670247869e+02 
8 1  1.574312890570e+02   2.049066196563e+02   3.637979301210e+02 
8
Step 9000
1 1  9.318071787067e+01   9.815832247849e+00  -2.336820969032e+02 
2 1 -1.305572181174e+02  -2.586105429078e+02   3.562047391530e+02 
3 1  1.307958057852e+02  -2.983303238352e+02   8.674520602563e+01 
4 1  1.954590232678e+02  -1.732681362073e+02   7.013962861839e+01 
5 1  2.405654516272e+02   1.040014208945e+02   1.153510807397e+02 
6 1  2.463674846147e+02   9.412692678513e+01  -2.111725693503e+02 
7 1 -2.823359917512e+01   1.109171338344e+01  -2.499642812630e+02 
8 1  1.906327288129e+02   5.605860988341e+01   3.101871504555e+02 
8
Step 10000
1 1  2.965495514388e+02  -2.040985471232e+01  -2.042960663267e+02 
2 1  7.394692640463e+01  -4.964655361259e+02   2.316553461755e+02 
3 1 -2.577498730469e+01  -2.310197475760e+02   1.898041073540e+01 
4 1  1.033477362920e+02  -1.925377401903e+02   1.345988923023e+01 
5 1  3.012703570024e+02   1.897548885229e+02   1.555175768554e+02 
6 1  4.165299671927e+02  -6.935281540234e-01  -1.557329933737e+02 
7 1  1.343605827063e+00  -3.306218821147e+01  -1.993994920608e+02 
8 1  1.588380434125e+02  -6.607136306789e+01   1.333928524134e+02 
8
Step 11000
1 1  3.642314698530e+02   1.832038358138e-02  -9.071073302814e+01 
2 1  2.234602256400e+02  -4.989217616773e+02   5.744488255634e+01 
3 1 -1.630259181883e+02  -9.583413877214e+01  -7.548521958015e+01 
4 1 -4.480823396151e+01  -1.310954977041e+02  -6.287986997902e+00 
5 1  2.318209094279e+02   2.126744453945e+02   1.327153079358e+02 
6 1  4.296467309706e+02  -9.144342087478e+01  -7.552674387232e+01 
7 1  7.053263097624e+01  -5.882187373351e+01  -8.687679557360e+01 
8 1  7.824701578392e+01  -1.435013540513e+02  -8.134286266326e+01 
8
Step 12000
1 1  2.643646421411e+02   5.288299513099e+01   7.503851367809e+01 
2 1  2.562945161648e+02  -2.669465333857e+02  -1.102158813546e+02 
3 1 -2.343542999575e+02   5.942523153422e+01  -1.425071664731e+02 
4 1 -1.937387802947e+02   4.835781876711e+00   2.718370057479e+01 
5 1  8.024463301863e+01   1.326902745323e+02   5.420311828776e+01 
6 1  2.898257432609e+02  -1.215603907918e+02  -2.020086632126e+00 
7 1  1.460616244756e+02  -8.128100487736e+01   4.578610894894e+01 
8 1 -4.213083469557e+01  -1.501402860005e+02  -2.335436390517e+02 
8
Step 13000
1 1  4.814845261844e+01   1.057566740022e+02   2.222440110874e+02 
2 1  1.765957168711e+02   8.649167719653e+01  -2.214505645903e+02 
3 1 -2.171994034695e+02   1.861691869889e+02  -1.329440444419e+02 
4 1 -2.764088318161e+02   1.678592886717e+02   9.091283732884e+01 
5 1 -8.067239397670e+01  -2.238174627424e+01  -2.711903661257e+01 
6 1  6.013465316518e+01  -7.070192039674e+01   4.487532575645e+01 
7 1  1.818191230477e+02  -1.145093561549e+02   1.487613427341e+02 
8 1 -1.781612816793e+02  -1.117860746472e+02  -2.878340950198e+02 
8
Step 14000
1 1 -1.747310719245e+02   1.229713381203e+02   2.687526689687e+02 
2 1  2.294981452359e+01   3.962781039807e+02  -2.481703858877e+02 
3 1 -1.198394264925e+02   2.459841410800e+02  -3.907582377615e+01 
4 1 -2.446811488052e+02   2.862837748450e+02   1.388517292879e+02 
5 1 -1.945083641403e+02  -1.730403138832e+02  -7.285836293613e+01 
6 1 -1.678452633965e+02   3.748805767598e+01   6.126382450014e+01 
7 1  1.410509461145e+02  -1.498302079791e+02   1.859510216041e+02 
8 1 -2.688650589615e+02  -7.566296224799e+01  -2.353390599720e+02 
8
Step 15000
1 1 -3.030117308732e+02   7.789317683740e+01   1.899944516679e+02 
2 1 -1.322726929992e+02   5.148408817760e+02  -2.050087686136e+02 
3 1  1.830894111755e+01   2.198322060213e+02   9.676798679066e+01 
4 1 -9.772006895486e+01   3.009138693460e+02   1.279564040193e+02 
5 1 -2.120586241008e+02  -2.664563205315e+02  -8.634142253717e+01 
6 1 -3.066487313519e+02   1.562145053288e+02   5.859374178421e+01 
7 1  2.030510916000e+01  -1.575604026487e+02   1.469584067530e+02 
8 1 -2.684788942989e+02  -4.572905876272e+01  -9.125244396743e+01 
8
Step 16000
1 1 -2.839717431118e+02  -1.811548880666e+01   2.657186223731e+01 
2 1 -2.112557709213e+02   3.819601043706e+02  -1.279264757217e+02 
3 1  1.349812980064e+02   1.205128881409e+02   2.103654575607e+02 
4 1  1.062337936920e+02   1.898214341113e+02   4.487718042527e+01 
5 1 -1.289832013091e+02  -2.562022736513e+02  -6.653605954667e+01 
6 1 -3.087534542276e+02   2.258513324070e+02   4.935071673759e+01 
7 1 -1.388306581727e+02  -1.077367402088e+02   5.376037693803e+01 
8 1 -1.699088399631e+02  -1.792984542222e+01   6.750590476718e+01 
8
Step 17000
1 1 -1.261673063373e+02  -1.252299239595e+02  -1.548216800037e+02 
2 1 -1.780880144255e+02   7.086550137571e+01  -4.081618521896e+01 
3 1  1.802650603346e+02  -7.670168377297e+00   2.548507401649e+02 
4 1  2.743556767498e+02  -1.500610962084e+01  -8.307157889704e+01 
5 1 -2.061111201705e+00  -1.286556623200e+02  -2.901019480522e+01 
6 1 -1.894395192633e+02   2.050705842296e+02   4.330018234655e+01 
7 1 -2.694231027996e+02   5.857508716986e+00  -4.676835774122e+01 
8 1 -1.005327008278e+01   1.466463447466e+00   1.630925038566e+02 
8
Step 18000
1 1  9.244072590387e+01  -2.042454233508e+02  -2.741266948901e+02 
2 1 -6.790997469740e+01  -2.667704641883e+02   3.938689606045e+01 
3 1  1.395357713220e+02  -1.167852212171e+02   2.016114752197e+02 
4 1  3.252208219677e+02  -2.350897015884e+02  -2.015408593734e+02 
5 1  1.001660067540e+02   6.100106936283e+01  -4.132030582062e+00 
6 1 -1.257348877302e+01   9.401100092557e+01   4.439813883241e+01 
7 1 -3.103922322481e+02   1.577936078428e+02  -1.062201873419e+02 
8 1  1.654725383377e+02   3.084722745929e+01   1.762309687990e+02 
8
Step 19000
1 1  2.595470713619e+02  -2.175031249042e+02  -2.650622220358e+02 
2 1  5.462961446899e+01  -4.822507624888e+02   9.422838833929e+01 
3 1  3.319174252857e+01  -1.719858780704e+02   5.567163713341e+01 
4 1  2.237821922534e+02  -3.732177060185e+02  -2.512730764250e+02 
5 1  1.328143674340e+02   2.262158684055e+02  -1.716343588371e+00 
6 1  1.415515519290e+02  -6.961022490972e+01   4.767309854305e+01 
7 1 -2.302489513372e+02   2.904567937196e+02  -9.716235397858e+01 
8 1  3.000341262443e+02   8.208905816595e+01   1.257561605657e+02 
8
Step 20000
1 1  2.974957850608e+02  -1.500056443238e+02  -1.298843182856e+02 
2 1  1.373136665357e+02  -4.680206768862e+02   1.275051222370e+02 
3 1 -8.890256498279e+01  -1.587514011076e+02  -1.309121060634e+02 
4 1  3.325355135656e+00  -3.655013876161e+02  -2.000311382864e+02 
5 1  8.414792370776e+01   2.977595415440e+02  -9.610150123179e+00 
6 1  2.036864311663e+02  -2.262458455678e+02   4.400771887998e+01 
7 1 -4.993786879916e+01   3.350029351272e+02  -2.470057640901e+01 
8 1  3.308397713772e+02   1.274022414445e+02   4.399013495632e+01 
8
Step 21000
1 1  1.948114616172e+02  -3.102093090393e+01   6.199695666020e+01 
2 1  1.480749394456e+02  -2.263140558129e+02   1.490500204634e+02 
3 1 -1.653259857301e+02  -9.009963164452e+01  -2.784041092538e+02 
4 1 -2.350674276043e+02  -2.069819910706e+02  -6.558194142869e+01 
5 1 -1.473895920301e+01   2.366790941712e+02  -1.486910832630e+01 
6 1  1.527912265752e+02  -3.097826516213e+02   2.868048489081e+01 
7 1  1.597468300209e+02   2.497605864422e+02   6.761085395460e+01 
8 1  2.354355801030e+02   1.367878864113e+02  -2.566277976391e+01 
8
Step 22000
1 1 -2.423681502173e+00   9.399303422859e+01   2.246021084317e+02 
2 1  8.274059706104e+01   1.137646660762e+02   1.520006278382e+02 
3 1 -1.527696181592e+02  -2.905679202204e+00  -3.345214137989e+02 
4 1 -3.758840877777e+02   4.291856165617e+01   9.250613288096e+01 
5 1 -1.037243086532e+02   6.817301181904e+01   4.448618077582e-01 
6 1  2.639913383821e+01  -2.825546853400e+02   8.629553839491e-01 
7 1  3.143566485467e+02   4.976858781059e+01   1.238461111824e+02 
8 1  5.635977312331e+01   1.005469196284e+02  -5.186228629670e+01 
8
Step 23000
1 1 -2.005340552537e+02   1.886531693810e+02   2.824993906916e+02 
2 1 -1.789936659542e+01   3.880344819598e+02   1.227238986916e+02 
3 1 -5.707402876984e+01   6.510007110213e+01  -2.827513940736e+02 
4 1 -3.462007269766e+02   2.808357415990e+02   2.063747735308e+02 
5 1 -1.307654012171e+02  -1.315258714632e+02   4.263742981508e+01 
6 1 -1.064341141039e+02  -1.510828663410e+02  -3.528497908850e+01 
7 1  3.523614939611e+02  -1.965176404412e+02   1.062838286806e+02 
8 1 -1.400388667086e+02   2.205353593144e+01  -3.171136161079e+01 
8
Step 24000
1 1 -3.018753531407e+02   2.220452286703e+02   2.021734971878e+02 
2 1 -9.182710753797e+01   4.864196688966e+02   6.512660180303e+01 
3 1  7.881087673166e+01   9.258424402002e+01  -1.319223868328e+02 
4 1 -1.478579517621e+02   4.017103130306e+02   2.269802858255e+02 
5 1 -7.843535372290e+01  -2.730848288928e+02   9.469484183721e+01 
6 1 -1.762689844671e+02   3.998822511677e+01  -7.170796112842e+01 
7 1  2.549188382309e+02  -3.902175859500e+02   1.209717833534e+01 
8 1 -2.904745082938e+02  -8.180965572906e+01  -1.928792059057e+00 
8
Step 25000
1 1 -2.646827678488e+02   1.874050745604e+02   2.511323602205e+01 
2 1 -1.070678125106e+02   3.620780697026e+02  -1.440158947177e+01 
3 1  1.924901092374e+02   7.697325037451e+01   7.019405948693e+01 
4 1  1.361933214069e+02   3.555044550497e+02   1.494490484669e+02 
5 1  2.862586006408e+01  -2.894420024018e+02   1.260342441385e+02 
6 1 -1.421940244301e+02   2.226050083952e+02  -9.884120135312e+01 
7 1  6.270133765911e+01  -4.404809023227e+02  -1.207144479153e+02 
8 1 -3.362735972013e+02  -1.651652659558e+02   2.375280590810e+00 
8
Step 26000
1 1 -1.152126255700e+02   1.096106489669e+02  -1.573935174502e+02 
2 1 -6.839501240416e+01   6.993530506777e+01  -1.046275613955e+02 
3 1  2.280677165386e+02   3.431699998469e+01   2.524869061038e+02 
4 1  3.728112358439e+02   1.636026202453e+02   1.948005590580e+01 
5 1  1.361744909181e+02  -1.717376424051e+02   1.079093296487e+02 
6 1 -1.769523870264e+01   3.272378487508e+02  -1.087419927909e+02 
7 1 -1.402740665275e+02  -3.133199984399e+02  -2.220611446157e+02 
8 1 -2.590751144817e+02  -1.797821148256e+02  -2.600853240623e+01 
8
Step 27000
1 1  7.715619766542e+01   1.862195006320e+01  -2.588240640533e+02 
2 1 -2.616136329843e-01  -2.399472823541e+02  -1.790559988868e+02 
3 1  1.591527710261e+02  -9.131158343774e+00   3.544532259799e+02 
4 1  4.475581535244e+02  -9.087524305679e+01  -9.248590871639e+01 
5 1  1.874787907079e+02   2.108987589916e+01   3.144461430000e+01 
6 1  1.341970023004e+02   3.149261568869e+02  -9.442113387336e+01 
7 1 -2.722610436384e+02  -5.499377232750e+01  -2.296990334735e+02 
8 1 -9.099702226420e+01  -1.167152347914e+02  -7.088716728582e+01 
8
Step 28000
1 1  2.235721038463e+02  -6.474281816456e+01  -2.286157047582e+02 
2 1  6.160089560900e+01  -4.203234754684e+02  -2.051166534716e+02 
3 1  1.232725953607e+01  -3.481906507948e+01   3.462526077638e+02 
4 1  3.188871945600e+02  -2.953211069617e+02  -1.307811211853e+02 
5 1  1.506789690386e+02   1.997018760594e+02  -8.120250903861e+01 
6 1  2.376525131147e+02   1.922162849474e+02  -5.466859096483e+01 
7 1 -2.872970080737e+02   2.297992003440e+02  -1.236806690293e+02 
8 1  1.042322373384e+02  -6.717802394348e+00  -1.085969284532e+02 
8
Step 29000
1 1  2.631538406136e+02  -1.251010424644e+02  -8.186330790005e+01 
2 1  8.378225532917e+01  -4.103903270997e+02  -1.725733352785e+02 
3 1 -1.486750920423e+02  -3.680142111127e+01   2.341621388828e+02 
4 1  3.973209164443e+01  -3.608514231383e+02  -8.202520732059e+01 
5 1  4.033645632873e+01   2.865182274038e+02  -1.856952046934e+02 
6 1  2.377288521563e+02   7.585201258148e+00   6.494808588493e+00 
7 1 -1.899078726413e+02   4.202181356258e+02   6.142951722596e+01 
8 1  2.528669776183e+02   1.025733115341e+02  -1.042589214791e+02 
8
Step 30000
1 1  1.930638726769e+02  -1.609801879537e+02   1.044338069428e+02 
2 1  5.890711865914e+01  -2.251341850733e+02  -9.439125304718e+01 
3 1 -2.581166076756e+02  -2.093774162420e+01   5.511201768195e+01 
4 1 -2.621952461727e+02  -2.662427398942e+02   1.788321988623e+01 
5 1 -9.091049341011e+01   2.428826546633e+02  -2.321656459692e+02 
6 1  1.267823177002e+02  -1.705507264891e+02   7.827019750116e+01 
7 1 -3.427069945045e+01   4.318583070978e+02   2.468518575211e+02 
8 1  3.033575966396e+02   1.601563981464e+02  -3.960540049384e+01 
8
Step 31000
1 1  5.803558363496e+01  -1.744210493849e+02   2.365208836173e+02 
2 1  6.598265051336e+00   4.863664668317e+01   7.130560124429e+00 
3 1 -2.722174155942e+02   1.254080625631e+00  -1.364313693193e+02 
4 1 -4.480059246795e+02  -6.275906656346e+01   1.011327435304e+02 
5 1 -1.822681938093e+02   9.150347684008e+01  -1.885052551228e+02 
6 1 -5.081087512762e+01  -2.779424437391e+02   1.434004291746e+02 
7 1  1.037117410216e+02   2.606186404569e+02   3.425553458656e+02 
8 1  2.497324724865e+02   1.309882063276e+02   6.329054177269e+01 
8
Step 32000
1 1 -7.195309052437e+01  -1.588244666498e+02   2.459520126931e+02 
2 1 -4.073822265059e+01   2.781213323869e+02   1.040185002975e+02 
3 1 -1.856448439682e+02   1.865132455375e+01  -2.854973772947e+02 
4 1 -4.343615308803e+02   1.499690216668e+02   1.070578486647e+02 
5 1 -1.943784199951e+02  -9.333536833753e+01  -6.129074746075e+01 
6 1 -2.179871143880e+02  -2.787341959409e+02   1.804920050875e+02 
7 1  1.657912912969e+02  -1.229391320295e+01   2.940320981924e+02 
8 1  1.156597825266e+02   2.970286173889e+01   1.620974756793e+02 
8
Step 33000
1 1 -1.393624747697e+02  -1.067921366045e+02   1.248463685687e+02 
2 1 -6.008911812632e+01   3.599197333152e+02   1.665652047356e+02 
3 1 -3.530973091028e+01   2.717822728191e+01  -3.503474274861e+02 
4 1 -2.299384297186e+02   2.753134336198e+02   2.143520531696e+01 
5 1 -1.244565823851e+02  -2.251139325368e+02   1.031590862015e+02 
6 1 -3.024852470520e+02  -1.802708379097e+02   1.716462306377e+02 
7 1  1.359245851470e+02  -2.619877140152e+02   1.113861347522e+02 
8 1 -5.181457506303e+01  -8.560536589010e+01   2.126083624906e+02 
8
Step 34000
1 1 -1.361198534515e+02  -2.116202932587e+01  -6.074759731571e+01 
2 1 -4.910793648173e+01   2.838749482633e+02   1.792978218717e+02 
3 1  1.196640258416e+02   2.864982439927e+01  -3.149767988349e+02 
4 1  6.738413715364e+01   2.613907719695e+02  -1.162680586432e+02 
5 1 -7.660222782866e+00  -2.509792107953e+02   2.386726623556e+02 
6 1 -2.689723756804e+02  -3.019805257739e+01   1.105423015833e+02 
7 1  4.360614589166e+01  -3.755495510171e+02  -1.314171023266e+02 
8 1 -1.896655173689e+02  -1.505611120109e+02   1.827257660621e+02 
8
Step 35000
1 1 -8.815354472071e+01   9.023677305263e+01  -2.196409056309e+02 
2 1 -1.965782709730e+01   1.047236237526e+02   1.546418842421e+02 
3 1  2.259504276479e+02   2.586141493962e+01  -1.957184568340e+02 
4 1  3.199297318599e+02   1.217459284480e+02  -2.326384840899e+02 
5 1  9.693170569275e+01  -1.690759721773e+02   2.894697210517e+02 
6 1 -1.375884218990e+02   1.089365783096e+02   7.237981731093e+00 
7 1 -5.088075201623e+01  -3.029523936212e+02  -3.269319190711e+02 
8 1 -2.546863790104e+02  -1.280159261969e+02   7.744321614335e+01 
8
Step 36000
1 1 -3.404075101077e+01   2.008224730559e+02  -2.775442966286e+02 
2 1  1.174091529545e+01  -9.067124781702e+01   1.118778179905e+02 
3 1  2.545061019689e+02   1.805895833889e+01  -2.773030330277e+01 
4 1  4.173145223604e+02  -6.628430915802e+01  -2.527207198588e+02 
5 1  1.400681431359e+02  -2.404364084530e+01   2.328898162510e+02 
6 1  3.429093499510e+01   1.865183655027e+02  -1.125276062885e+02 
7 1 -9.038727862070e+01  -8.910141853268e+01  -3.824386029688e+02 
8 1 -2.392028345384e+02  -2.347864344306e+01  -6.580206132745e+01 
8
Step 37000
1 1 -1.357056933296e+01   2.612146195373e+02  -1.968195406607e+02 
2 1  3.111227913616e+01  -2.167898568899e+02   5.993177931571e+01 
3 1  2.105012542509e+02   4.680512334200e-01   1.433743872940e+02 
4 1  3.223730712115e+02  -2.053776104421e+02  -1.415090071314e+02 
5 1  1.122615838262e+02   1.159733042229e+02   8.855702421379e+01 
6 1  1.836702056542e+02   1.787188890586e+02  -2.124286656917e+02 
7 1 -5.280160940472e+01   1.522303589685e+02  -2.699804418511e+02 
8 1 -1.528867216944e+02   1.208164122206e+02  -1.976636832055e+02 
8
Step 38000
1 1 -3.100793901467e+01   2.324680810132e+02  -1.156242780722e+01 
2 1  3.404356093796e+01  -2.299893546966e+02  -9.163662201920e-01 
3 1  1.222640835533e+02  -2.727740644427e+01   2.733304246272e+02 
4 1  9.464749204353e+01  -2.307795133655e+02   6.480212032305e+01 
5 1  4.110916897849e+01   1.890089253862e+02  -8.746839769029e+01 
6 1  2.553874626067e+02   1.012978276600e+02  -2.559727956829e+02 
7 1  4.529013961288e+01   3.019545468131e+02  -3.942340381458e+01 
8 1 -2.331059345317e+01   2.282395998411e+02  -2.667331905330e+02 
8
Step 39000
1 1 -4.732468016477e+01   1.173304237742e+02   1.806726080169e+02 
2 1  2.534345317064e+01  -1.514796199613e+02  -6.832776202818e+01 
3 1  2.023982932955e+01  -6.000805263847e+01   3.259293765361e+02 
4 1 -1.466424827630e+02  -1.363869520580e+02   2.789936410358e+02 
5 1 -3.404273049084e+01   1.718662065187e+02  -2.271350061990e+02 
6 1  2.323126924144e+02   9.858262656671e-01  -2.228478029080e+02 
7 1  1.554749218857e+02   2.837544192933e+02   2.082641976584e+02 
8 1  1.095871775463e+02   2.301301061463e+02  -2.424660990219e+02 
8
Step 40000
1 1 -2.736662890730e+01  -4.879830174888e+01   2.922485444679e+02 
2 1  1.905259038609e+01  -4.107761019757e+01  -1.423037721246e+02 
3 1 -7.466164836169e+01  -8.969765369607e+01   2.835090929208e+02 
4 1 -2.975898810824e+02   2.743325355119e+01   4.032398210863e+02 
5 1 -6.944966932953e+01   8.726082119589e+01  -2.809449396244e+02 
6 1  1.475233073142e+02  -7.334708925191e+01  -1.180250146684e+02 
7 1  2.083243180218e+02   1.018340027596e+02   3.583464597729e+02 
8 1  2.132953990072e+02   1.176749017404e+02  -1.327079658201e+02 
8
Step 41000
1 1  4.102783487489e+01  -2.056294666293e+02   2.763942122102e+02 
2 1  2.768619168330e+01   4.273509042271e+01  -2.191013712968e+02 
3 1 -1.508243949414e+02  -9.947943133720e+01   1.616645802098e+02 
4 1 -2.988517123455e+02   1.795427882959e+02   3.695320548996e+02 
5 1 -4.734082707457e+01  -1.504972296837e+01  -2.350025417969e+02 
6 1  3.937721349554e+01  -8.992430925702e+01   3.088829918249e+01 
7 1  1.560902929499e+02  -1.481828871329e+02   3.373697033660e+02 
8 1  2.576289432766e+02  -6.988379860851e+01   2.732488486167e+01 
8
Step 42000
1 1  1.424754150104e+02  -2.793073162854e+02   1.340469210348e+02 
2 1  3.169451367251e+01   7.483563108454e+01  -2.661034308642e+02 
3 1 -2.070341290161e+02  -6.968154942848e+01  -6.132881885960e-01 
4 1 -1.518686189048e+02   2.436526805886e+02   1.770954594711e+02 
5 1  8.417440549737e+00  -8.489381956102e+01  -1.108614959054e+02 
6 1 -5.863833267575e+01  -4.624865748912e+01   1.762473724267e+02 
7 1  6.832463858138e+00  -3.311057728350e+02   1.612616474808e+02 
8 1  2.202588312884e+02  -2.699536024921e+02   1.842092796976e+02 
8
Step 43000
1 1  2.242239070779e+02  -2.258674005124e+02  -7.208020397558e+01 
2 1  7.297227253514e+00   6.405134215502e+01  -2.412234459046e+02 
3 1 -2.344902049484e+02   6.754430411880e-01  -1.563399128374e+02 
4 1  5.336810455524e+01   1.845950325017e+02  -9.323417519487e+01 
5 1  5.889093700476e+01  -9.633717931620e+01   4.016476801945e+01 
6 1 -1.118346644970e+02   2.372704842698e+01   2.666447765885e+02 
7 1 -1.889818626158e+02  -3.519320966166e+02  -8.263105935783e+01 
8 1  1.061729882430e+02  -3.845613640195e+02   2.836925306547e+02 
8
Step 44000
1 1  2.256147641247e+02  -7.052354454451e+01  -2.448863305584e+02 
2 1 -4.563956052087e+01   4.642080622993e+01  -1.220761265325e+02 
3 1 -2.197418946162e+02   9.227228883573e+01  -2.550184729991e+02 
4 1  2.068214352398e+02   3.020353542342e+01  -3.273868488430e+02 
5 1  7.580881637137e+01  -5.788778583217e+01   1.628885932772e+02 
6 1 -1.189295833624e+02   7.344843764784e+01   2.716160762686e+02 
7 1 -3.582009675058e+02  -1.919622192752e+02  -2.880396072901e+02 
8 1 -4.734706014700e+01  -3.443701549114e+02   2.905739597026e+02 
8
Step 45000
1 1  1.238796075654e+02   1.136721999467e+02  -3.129228174083e+02 
2 1 -1.026154089569e+02   5.128628400767e+01   7.778902122581e+01 
3 1 -1.470089659792e+02   1.736231080293e+02  -2.627875285693e+02 
4 1  2.437227018369e+02  -1.412281531256e+02  -4.350485107983e+02 
5 1  4.397548270784e+01  -2.789854297505e+00   2.170316588744e+02 
6 1 -1.047972866317e+02   7.168554012597e+01   1.903861065653e+02 
7 1 -4.096462014614e+02   8.482320280073e+01  -3.517611392944e+02 
8 1 -2.053742900078e+02  -1.675551898350e+02   1.979253050029e+02 
8
Step 46000
1 1 -5.705658991288e+01   2.338143976689e+02  -2.491391391000e+02 
2 1 -1.369342846340e+02   7.661567726538e+01   2.958464689546e+02 
3 1 -1.073011260463e+01   2.081030718411e+02  -1.858301268363e+02 
4 1  1.531387899672e+02  -2.513885838537e+02  -3.736030014057e+02 
5 1 -2.130314608363e+01   2.957122593180e+01   1.904098436597e+02 
6 1 -8.474025869566e+01   1.298099399488e+01   4.898148590480e+01 
7 1 -2.965743104516e+02   3.482758450207e+02  -2.404617211173e+02 
8 1 -3.079327024241e+02   8.838968755607e+01   3.503892971322e+01 
8
Step 47000
1 1 -2.469809138249e+02   2.200190886380e+02  -8.450247480522e+01 
2 1 -1.201862998316e+02   9.339539616028e+01   4.392907482921e+02 
3 1  1.654370861427e+02   1.654721320916e+02  -6.592537627871e+01 
4 1 -1.837290091380e+01  -2.509271175441e+02  -1.681313132059e+02 
5 1 -8.223180777800e+01   1.816000979226e+01   1.054041471865e+02 
6 1 -7.094006734985e+01  -7.368170386457e+01  -9.842209068275e+01 
7 1 -4.686378526496e+01   4.700975167905e+02  -1.507371345475e+01 
8 1 -2.953852054878e+02   3.386248390667e+02  -1.454170992150e+02 
8
Step 48000
1 1 -3.535615764105e+02   6.802686735685e+01   1.033151513213e+02 
2 1 -3.236802808423e+01   7.173917036920e+01   4.369007249075e+02 
3 1  3.234004756870e+02   4.652349506758e+01   5.030975633863e+01 
4 1 -1.792884149372e+02  -1.298414278544e+02   7.966208090895e+01 
5 1 -1.061413867429e+02  -2.533149797286e+01   4.722636338134e+00 
6 1 -6.683705585173e+01  -1.392360408374e+02  -1.967027914375e+02 
7 1  2.520806318715e+02   3.841337647568e+02   2.122158131625e+02 
8 1 -1.660090487600e+02   4.749437365338e+02  -2.790380177200e+02 
8
Step 49000
1 1 -3.172550801836e+02  -1.369530813924e+02   2.281515784009e+02 
2 1  1.060892733482e+02  -6.538203905133e+00   2.762889721025e+02 
3 1  3.968713933945e+02  -1.110492373979e+02   1.218647643272e+02 
4 1 -2.442254013396e+02   5.568635806796e+01   2.556020304463e+02 
5 1 -8.658006866367e+01  -6.669210155928e+01  -7.417520562799e+01 
6 1 -5.460183822998e+01  -1.441627310050e+02  -2.190252934300e+02 
7 1  4.870454209433e+02   1.203251337068e+02   3.422993349626e+02 
8 1  2.501037616856e+01   4.349603168006e+02  -3.169460034343e+02 
8
Step 50000
1 1 -1.541423902187e+02  -2.858557745961e+02   2.547989801562e+02 
2 1  2.247620811294e+02  -1.189693671944e+02   1.894382663411e-01 
3 1  3.392176645486e+02  -2.391163520266e+02   1.307985810300e+02 
4 1 -1.836819769896e+02   2.074102798472e+02   2.958364855863e+02 
5 1 -3.557095091871e+01  -7.338748393820e+01  -1.055970923010e+02 
6 1 -1.758002663347e+01  -7.786393390343e+01  -1.650223198936e+02 
7 1  5.517846149506e+02  -2.015640890716e+02   3.059010379691e+02 
8 1  2.220423933942e+02   2.472755091347e+02  -2.440268481510e+02 
8
Step 51000
1 1  6.974131520789e+01  -2.899020600412e+02   1.877011409511e+02 
2 1  2.550065465421e+02  -2.070535766769e+02  -2.916563138545e+02 
3 1  1.497447594192e+02  -2.795556937400e+02   9.491692386509e+01 
4 1 -2.952996593977e+01   2.623483741485e+02   2.104133282711e+02 
5 1  2.006180616430e+01  -3.133517136555e+01  -8.874362232734e+01 
6 1  4.247395136974e+01   3.662490629525e+01  -6.218394859660e+01 
7 1  4.089577063148e+02  -4.345828656675e+02   1.219408289189e+02 
8 1  3.458360400655e+02  -1.889555793437e+01  -9.006746406031e+01 
8
Step 52000
1 1  2.627407581519e+02  -1.182596008730e+02   6.254780166229e+01 
2 1  1.793661472381e+02  -2.117382785599e+02  -4.764113803252e+02 
3 1 -1.132454866030e+02  -2.128081289625e+02   5.017388933629e+01 
4 1  1.331519802047e+02   2.010582844261e+02   6.224071154701e+01 
5 1  5.507799011155e+01   4.523534642950e+01  -4.973563039368e+01 
6 1  1.186510446492e+02   1.416638873985e+02   3.216184894386e+01 
7 1  1.110366100386e+02  -4.807600536740e+02  -1.105326551705e+02 
8 1  3.249134475472e+02  -2.669846598448e+02   1.002140951008e+02 
8
Step 53000
1 1  3.368245944005e+02   1.584409028929e+02  -5.693887371564e+01 
2 1  1.821007188986e+01  -1.151765258101e+02  -4.702173134706e+02 
3 1 -3.467398345264e+02  -5.904034622973e+01   2.352436989278e+01 
4 1  2.257263865876e+02   4.717314389868e+01  -6.608335137014e+01 
5 1  5.940639792920e+01   1.187427810742e+02  -1.902472917868e+01 
6 1  1.824956647154e+02   1.865005838871e+02   7.939027856324e+01 
7 1 -2.258449567892e+02  -3.268214928373e+02  -2.783106440627e+02 
8 1  1.720645976740e+02  -4.080050244882e+02   2.503094239096e+02 
8
Step 54000
1 1  2.617471311504e+02   3.896722662533e+02  -1.184411536296e+02 
2 1 -1.714733537283e+02   5.165189227749e+01  -2.974902764492e+02 
3 1 -4.524866169402e+02   1.196555997581e+02   2.250926626395e+01 
4 1  2.080936557165e+02  -1.246305464835e+02  -1.034363254192e+02 
5 1  4.478117377405e+01   1.474439128984e+02  -8.566790003978e+00 