8
Step 0
1 1  1.415085037505e+02   6.322842375918e+01   2.202084624276e+02 
2 1 -2.778435042451e+02  -3.138218497296e+02  -8.843962058332e+01 
3 1  1.406920592888e+02   5.562010864580e+02  -4.954259929110e+01 
4 1  1.569920420371e+00  -5.249952349313e+02   2.995119120833e+02 
5 1  1.220757322056e+02   2.716465050181e+02   3.363187634147e+01 
6 1 -2.998829803954e+01  -8.923183578220e+01   8.023695311866e+01 
7 1  3.201539551545e+02  -4.262352332529e+02  -2.720823248011e+02 
8 1 -3.041367549446e+02   3.931877029547e+01  -3.949575748481e+02 
8
Step 1000
1 1  1.303636000608e+02  -5.059270125712e+02   4.808335356301e+02 
2 1 -1.995394849209e+02  -6.976611280494e+02  -1.447334414517e+01 
3 1  6.288882202011e+02  -2.435715552633e+02  -3.726509209967e+02 
4 1 -1.230142697672e+02  -7.404723731673e+01   1.028487280884e+02 
5 1  4.569268698676e+02  -1.760480751275e+02   8.196934403674e+01 
6 1  4.617311908717e+02  -5.164158121838e+02   4.266357597323e+02 
7 1  6.019311030783e+02  -3.798552478609e+02  -1.970776453671e+02 
8 1  3.977013065200e+01  -1.440216051977e+02  -1.315269383771e+02 
8
Step 2000
1 1 -1.318653444460e+02  -3.931026046443e+02   3.110344789507e+02 
2 1  3.048381489729e+01  -3.693481081736e+02  -1.489303140523e+02 
3 1  3.731181869412e+02  -4.218678328422e+02  -1.809249814063e+02 
4 1 -1.584194839439e+02   5.172973090906e+02   3.285599401089e+00 
5 1  2.894661416927e+02  -3.447272915753e+02  -1.447663842880e+02 
6 1  4.177421681581e+02  -2.834888976945e+02   3.253378323062e+02 
7 1  3.103510325284e+02   1.659221763609e+02  -1.129302389929e+02 
8 1  3.503682913115e+02  -1.120685905893e+02   9.897913966327e+01 
8
Step 3000
1 1 -4.573953092990e+02   2.388107618366e+02  -4.250217738452e+01 
2 1  1.880151288042e+02   2.876900702879e+02  -4.488125196917e+02 
3 1 -3.054653240045e+02  -2.013687408945e+01   2.291386730839e+02 
4 1  1.347079300792e+01   6.187549216892e+02   9.216635902810e+01 
5 1 -2.453729003257e+02  -1.184391751266e+02  -3.013491975468e+02 
6 1 -4.408899346341e+01   1.785818960545e+02  -3.838766359248e+01 
7 1 -2.599775642866e+02   4.883404381845e+02  -1.634472394379e+02 
8 1  2.591898622581e+02  -1.166480097014e+02   1.528459857515e+01 
8
Step 4000
1 1 -3.680486581557e+02   5.729610362561e+02  -3.335844924735e+02 
2 1  9.218228844723e+01   5.274417272306e+02  -5.332052691706e+02 
3 1 -6.356853832205e+02   1.514923638923e+02   4.342649528862e+02 
4 1  2.913945069134e+02   1.214094073559e+02   1.388247535974e+02 
5 1 -3.889434360283e+02  -2.280008774644e+01  -2.465524495297e+02 
6 1 -3.589248762739e+02   2.694061598890e+02  -2.217967805837e+02 
7 1 -5.620275355599e+02   2.520559851320e+02  -1.683436623356e+02 
8 1 -1.312651880179e+02  -9.927584603474e+01  -9.263542246614e+01 
8
Step 5000
1 1  1.724572504673e+02   2.343068627582e+02  -4.153913222028e+02 
2 1  2.906556291306e+01   1.648631170507e+02  -1.602391708580e+02 
3 1 -3.588503886848e+02  -1.907606141725e+02   3.766345970192e+02 
4 1  2.960214264253e+02  -5.550106738162e+02  -2.375054890159e+02 
5 1 -2.816733188090e+01  -2.156449135462e+02   3.701925551367e+01 
6 1 -2.070972111613e+02  -2.151130976402e+01  -1.194629139242e+02 
7 1 -3.344680719777e+02  -1.813791872934e+02   5.179788293794e+01 
8 1 -4.237134344716e+02   4.509483522439e+01   1.079505156405e+01 
8
Step 6000
1 1  5.926982835442e+02  -3.816966567779e+02  -2.977598635499e+02 
2 1 -9.810908050455e+01  -2.613878792197e+02   4.535030607722e+02 
3 1  1.893978150367e+02  -5.505838746099e+02  -3.751094351151e+01 
4 1 -6.206578988542e+01  -7.699820513875e+02  -5.725528154236e+02 
5 1  4.053756081680e+02  -2.691347745370e+02   2.355034968792e+02 
6 1  1.395260124062e+02  -1.836868961425e+02   5.844994577732e+01 
7 1  9.625810860477e+01  -2.633880332179e+02   3.755159502026e+02 
8 1 -3.949481041132e+02   1.614925155360e+02   2.458323584475e+02 
8
Step 7000
1 1  3.852729834289e+02  -6.093219244980e+02  -5.944402877639e+01 
2 1 -1.910414949876e+02  -3.541267445565e+02   7.234150114557e+02 
3 1  2.553021348004e+02  -3.145264065724e+02  -4.350335557903e+02 
4 1 -4.535815524293e+02  -2.992222498632e+02  -3.096282958975e+02 
5 1  4.615165734585e+02   9.374252547846e+01   1.635153277724e+02 
6 1  2.328938050288e+02  -8.305397871503e+01   7.468388347788e+01 
7 1  2.915191089223e+02   2.988593922796e+01   4.472675787622e+02 
8 1 -7.198852867274e+01   9.529125014626e+01   2.813986946407e+02 
8
Step 8000
1 1 -1.797352016112e+02  -2.844668508068e+02   1.272827515874e+02 
2 1 -1.559460416034e+01  -8.179304887656e+01   4.245033363942e+02 
3 1 -1.290234796228e+02   3.460458027763e+02  -4.068540871216e+02 
4 1 -4.452616983507e+02   3.799881967873e+02   2.534532011207e+02 
5 1 -2.025895230297e+00   4.444852431908e+02  -2.068988871081e+01 
6 1  5.562679608962e+01   3.166372603093e+01  -4.558855782019e+00 
7 1  1.248284350158e+02   2.590806504225e+02   1.763274919089e+02 
8 1  1.931760193356e+02  -1.685193800820e+02   3.290434145345e+01 
8
Step 9000
1 1 -5.338422532914e+02   1.985048523969e+02   2.043396265566e+02 
2 1  2.004203973483e+02   2.137197364411e+02  -1.493940199665e+02 
3 1 -2.877381559818e+02   6.699479860517e+02  -5.840902840935e+01 
4 1  6.745583353292e+00   6.720505759100e+02   4.334172488359e+02 
5 1 -3.958292979057e+02   4.518229252687e+02   9.177793334788e+00 
6 1 -9.488210628043e+01  -7.967637377023e+01  -2.365037044613e+01 
7 1 -1.069279711925e+02   1.409063192578e+02  -1.941730581724e+02 
8 1  1.782610436633e+02  -4.033548610950e+02  -2.443887453588e+02 
8
Step 10000
1 1 -3.795660132824e+02   4.272046727965e+02   1.771439640185e+02 
2 1  3.180838522622e+02   2.656492117849e+02  -4.334395837911e+02 
3 1  1.278708982598e+02   2.794838940278e+02   2.241707716853e+02 
4 1  4.682953796753e+02   3.892997558574e+02   5.139224654534e+01 
5 1 -4.499500537261e+02  -1.035806741300e+01   1.153959901514e+02 
6 1 -1.304603827867e+01  -2.509034053367e+02   1.571343825070e+01 
7 1 -1.502071179059e+02  -7.131542822000e+01  -3.250724729224e+02 
8 1  5.299618078210e+00  -1.689749362938e+02  -1.914845507588e+02 
8
Step 11000
1 1  5.111281192898e+01   2.954613352064e+02   1.600686390264e+02 
2 1  1.104569808003e+02   1.815007926529e+02  -2.693718906216e+02 
3 1  5.891765075852e+02  -3.322914304739e+02   2.066236024374e+02 
4 1  4.573152975588e+02  -1.046343673476e+02  -3.238157607358e+02 
5 1 -1.857009568814e+02  -5.480770932871e+02   1.316327497839e+02 
6 1  1.454021857323e+02  -1.304254474541e+02  -1.499630690651e+01 
7 1 -4.017060253427e+01  -5.851029164318e+00  -1.629157876868e+02 
8 1  7.631191025767e+01   4.423792312561e+02   3.873555507923e+01 
8
Step 12000
1 1  2.852393126836e+02   4.048107664634e+01   1.167909611355e+01 
2 1 -2.936687603947e+02  -3.782611836496e+01   1.747163769636e+02 
3 1  4.471811332103e+02  -4.442209036785e+02   4.610068766816e+01 
4 1  1.306527440817e+01  -3.185684316647e+02  -1.584560048265e+02 
5 1  3.134106855905e+02  -3.682732290961e+02  -1.442436697631e+02 
6 1  1.217195961139e+02   2.673718896801e+02  -1.257468661691e+02 
7 1  4.097837516525e+01   2.078513552132e+02   2.374758030738e+01 
8 1  2.718840486570e+02   6.629180898516e+02   2.432030290063e+02 
8
Step 13000
1 1  2.002513626737e+02  -8.556617616427e+01  -1.270715311786e+02 
2 1 -4.279589150519e+02  -2.472811331201e+02   3.734540047678e+02 
3 1 -1.799737841137e+02  -2.118130630279e+01  -6.939694106607e+00 
4 1 -3.567951221380e+02  -1.624939250180e+02   2.981637423510e+02 
5 1  5.921178813951e+02   2.004905267992e+02  -4.028709399106e+02 
6 1 -9.982986761533e+01   5.041423721908e+02  -1.823635005631e+02 
7 1  4.775899312629e+01   1.249389260322e+02   2.903865425692e-01 
8 1  3.193961335126e+02   2.411586181822e+02   1.344323366707e+02 
8
Step 14000
1 1  8.910063690569e+01  -1.114223550241e+02  -1.825741420488e+02 
2 1 -1.191394053896e+02  -3.128251288564e+02   1.093098829828e+02 
3 1 -5.692147947490e+02   3.775586988954e+02   5.004359172910e+01 
4 1 -2.916401044383e+02   5.248112423215e+01   3.818562013602e+02 
5 1  4.055345746229e+02   4.019023438450e+02  -2.763417637609e+02 
6 1 -2.889314470236e+02   2.558426056749e+02  -6.071549485032e+01 
7 1  7.547717280015e+01  -3.356277412376e+02  -1.411113349678e+02 
8 1  5.415315310444e+01  -3.726796936220e+02  -1.434473675908e+02 
8
Step 15000
1 1  5.487881774802e+01  -3.910226706093e+01  -1.757238890346e+02 
2 1  2.699464021709e+02  -1.807123620726e+02  -3.429639625489e+02 
3 1 -2.832739842114e+02   2.534004963493e+02   1.079215331312e+02 
4 1  6.975193667751e+01   1.750675473478e+01   2.099661614465e+01 
5 1 -1.425375370296e+02   6.016097195419e+01   2.445034576060e+02 
6 1 -2.289666757641e+02  -2.245619314313e+02   1.356075221439e+02 
7 1  1.731988058064e+02  -6.755364910547e+02  -1.256283657969e+02 
8 1 -3.102857715414e+02  -5.748522596738e+02  -3.780745216054e+02 
8
Step 16000
1 1 -1.990777072154e+00   6.980572889887e+01  -7.168703757702e+00 
2 1  2.833328242423e+02   7.915925856886e+01  -5.035370532765e+02 
3 1  2.524446390545e+02  -1.756226106541e+02   4.437828684767e+01 
4 1  3.040879932651e+02  -1.808255110156e+02  -3.361770328542e+02 
5 1 -5.421618892738e+02  -2.599621993028e+02   5.394352847239e+02 
6 1  3.633439532748e+00  -3.967890432619e+02   2.152805629817e+02 
7 1  1.932115369620e+02  -4.158184105862e+02   1.204457709670e+02 
8 1 -5.242570640829e+02  -2.705394506245e+02  -2.487985985485e+02 
8
Step 17000
1 1 -1.215391144568e+02   1.130961653560e+02   1.582058434128e+02 
2 1 -1.820756516598e+01   2.694977896187e+02  -1.851314625173e+02 
3 1  3.374702162799e+02  -3.223890464885e+02  -3.370128432234e+01 
4 1  1.651728906408e+02  -2.648043307132e+02  -2.016088388758e+02 
5 1 -4.639169268927e+02  -8.406582885607e+01   2.216199256301e+02 
6 1  1.640475157929e+02  -1.061343107560e+02   1.359258712630e+02 
7 1  1.192481004033e+01   2.513738324366e+02   3.230797394133e+02 
8 1 -4.219417794562e+02   1.221852956830e+02   1.465558715071e+02 
8
Step 18000
1 1 -1.573346225560e+02   5.279337233646e+00   1.343333512781e+02 
2 1 -2.131972126980e+02   2.212926441216e+02   2.236147252338e+02 
3 1 -8.379941599984e+01  -3.751279122227e+01  -8.189263819518e+01 
4 1 -1.741649804254e+02  -5.925872471469e+01   2.456284795600e+02 
5 1 -7.293806839448e+01   2.347990828138e+02  -3.279997956141e+02 
6 1  1.642626906087e+02   2.231990498301e+02   2.792495034731e+01 
7 1 -2.561637438549e+02   6.719084843989e+02   2.337093017550e+02 
8 1 -1.240804623751e+01   2.475355254926e+02   4.585815059979e+02 
8
Step 19000
1 1 -1.892008822560e+01  -1.782259867045e+02  -2.693378143546e+01 
2 1 -9.114021566859e+00   2.439337222065e+01   3.295732631682e+02 
3 1 -4.521577027588e+02   2.318501790492e+02  -7.986654849179e+01 
4 1 -3.119460009063e+02   2.902636389705e+02   3.297475414210e+02 
5 1  1.909993712862e+02   1.664324767560e+02  -4.632947928362e+02 
6 1  1.076404654607e+02   1.637656465390e+02  -2.917449226069e+01 
7 1 -3.618655503340e+02   4.839794662635e+02  -5.797917714193e+01 
8 1  4.324688289948e+02   5.258001768916e+01   3.633843043815e+02 
8
Step 20000
1 1  1.550729946165e+02  -3.653075223982e+02  -1.804003988644e+01 
2 1  2.962453575466e+02  -8.221876218445e+01   1.104841062025e+02 
3 1 -3.159827469285e+02   1.049857697777e+02  -9.619955013252e+01 
4 1 -1.406387378202e+02   4.548113434439e+02  -1.287744354222e+02 
5 1  1.558057492697e+02  -1.532842980580e+02  -1.101469356993e+02 
6 1  9.003883501907e+01  -1.884691630890e+02  -6.321238395853e+01 
7 1 -1.877476468096e+02  -6.353285049635e+00  -2.141270401442e+02 
8 1  5.680467177128e+02  -1.635704809917e+02  -6.618726686040e+01 
8
Step 21000
1 1  1.049638748169e+02  -3.326857917195e+02   1.063691601755e+02 
2 1  2.472072189135e+02  -6.203970611182e+00  -9.705883472415e+01 
3 1  1.393200403004e+02  -1.774785149259e+02  -1.002283521170e+02 
4 1  1.280213669673e+02   2.771838958709e+02  -5.738173777813e+02 
5 1  3.312465501376e+01  -3.342397158056e+02   3.047876259907e+02 
6 1  7.067327908605e+01  -3.399546315673e+02  -1.149220993566e+02 
7 1  9.731901184581e+01  -2.828478555083e+02  -8.619711514085e+01 
8 1  2.721064323563e+02  -1.007718596882e+02  -3.502303240158e+02 
8
Step 22000
1 1 -2.334954271676e+02   8.664511589196e+01   1.458831564745e+02 
2 1 -1.284259236566e+02   5.404864640808e+01  -3.870645381250e+01 
3 1  4.034010655428e+02  -2.032589904842e+02  -4.437055259030e+01 
4 1  2.507015934820e+02  -1.278859494868e+02  -4.515773830029e+02 
5 1  8.466763042396e+01  -2.019744716528e+02   4.189068859510e+02 
6 1 -2.320628311083e+01  -8.602793836098e+01  -1.087161944956e+02 
7 1  2.433362653660e+02  -1.623130785728e+02   1.218885508736e+02 
8 1 -1.818624574558e+02   2.291196160116e+02  -3.179618939006e+02 
8
Step 23000
1 1 -4.096361611637e+02   4.796111438711e+02  -5.121226108932e+01 
2 1 -4.116961209112e+02   9.217215788176e+00   1.661825739504e+02 
3 1  3.557666523625e+02   5.348813122713e+00   9.777808402677e+01 
4 1  4.839898019898e+01  -2.986100482112e+02   1.209032438891e+02 
5 1  3.019550139726e+02   1.537009777319e+02   1.416712104690e+02 
6 1 -1.398364098208e+02   2.767939431585e+02  -1.157484522376e+01 
7 1  1.795736738334e+02   7.324815846474e+01   1.095926768946e+02 
8 1 -4.509069769925e+02   3.349024133080e+02  -7.037499090860e+01 
8
Step 24000
1 1 -5.672986671306e+01   5.477935029181e+02  -3.384776137003e+02 
2 1 -2.799547643813e+02  -1.084211713559e+02   2.121332427754e+02 
3 1  1.620000583598e+02   1.661106564474e+02   2.415412688190e+02 
4 1 -1.064787120937e+02  -3.344226148864e+02   4.578456649075e+02 
5 1  2.651194765562e+02   2.908942764778e+02  -1.894874674899e+02 
6 1 -1.984488281331e+02   3.056941632579e+02   1.190524878673e+02 
7 1  3.299979750980e+01   1.226268600514e+02  -1.235064711109e+02 
8 1 -3.972559917696e+02   2.038254667032e+02   5.076989833838e+01 
8
Step 25000
1 1  5.126512806725e+02   1.636289302627e+02  -3.484716761833e+02 
2 1  9.869524536344e+01  -1.902326036562e+02   8.414682626480e+01 
3 1  2.530247320729e+01   1.722124271232e+02   1.056510263730e+01 
4 1 -1.137145248519e+02  -1.907890333598e+02   3.181054136672e+02 
5 1 -1.449551635176e+02   7.106400570993e+01  -3.359266364971e+02 
6 1 -1.796078831301e+02  -1.888173256781e+01   9.924355819559e+01 
7 1 -4.754720498321e+01   6.576043278292e+00  -2.737903621492e+02 
8 1  1.384745408990e+01  -1.404797811340e+02   9.850827229748e+01 
8
Step 26000
1 1  7.062737188940e+02  -3.728023516503e+02  -2.493696674058e+01 
2 1  2.379338851859e+02  -4.210597607312e+01  -1.495200230849e+02 
3 1  1.490903859216e+01  -1.687272275855e+02  -1.290475769431e+02 
4 1 -4.526639623190e+01   7.951246162249e+01  -1.180158359888e+01 
5 1 -5.982490654875e+02  -1.599641543820e+02  -2.790766141710e+02 
6 1 -7.407826888806e+01  -2.901368446705e+02  -6.786166943034e+01 
7 1 -3.593873113949e+01  -9.302850159888e+01  -1.128265510478e+02 
8 1  3.839159499163e+02  -3.108333457953e+02   1.389749004760e+02 
8
Step 27000
1 1  2.347473216458e+02  -5.417748885156e+02   3.480729616422e+02 
2 1  6.917007126296e+01   8.237850595552e+01  -2.178433968609e+02 
3 1 -1.352311314078e+02  -3.703017960998e+02   5.296151384688e+01 
4 1  2.555501011535e+01   3.608855276735e+02  -5.212245588972e+01 
5 1 -5.773052368473e+02  -7.698465303191e+01  -1.244801945417e+02 
6 1  1.012016236974e+02  -1.716715321445e+02  -1.752402277216e+02 
7 1  3.203259097924e+00  -1.452211380067e+02   1.951187082777e+02 
8 1  4.035633097549e+02  -2.455515454432e+02   2.082534058399e+02 
8
Step 28000
1 1 -4.860470806596e+02  -1.969556870561e+02   4.568447112631e+02 
2 1 -1.025195315467e+02   6.084422485132e+01  -1.469827844640e+02 
3 1 -4.383771246372e+02  -3.063093187892e+01   2.493761042147e+02 
4 1  1.317023974878e+02   3.864614835248e+02   2.294086149715e+02 
5 1  2.095865805858e+01   1.599981886968e+02   7.676756925820e+01 
6 1  2.864004064735e+02   2.255887130159e+02  -5.962577944532e+01 
7 1  2.237979492019e+01  -2.333423565193e+02   2.707847982891e+02 
8 1  4.067070101204e+01  -5.740541589845e+01   2.202231895717e+02 
8
Step 29000
1 1 -7.070892362678e+02   3.436304409954e+02   2.353969275130e+02 
2 1 -1.237543615742e+01  -6.567793413947e+01  -2.300326438323e+02 
3 1 -4.225217267337e+02   3.917995738533e+02   8.340520297845e+01 
4 1  1.559429324180e+02   1.903054706070e+02   3.492055603056e+02 
5 1  6.576426115107e+02   2.275310256117e+02   3.774558992957e+02 
6 1  3.118357668890e+02   4.591506276213e+02   1.616722209861e+02 
7 1  3.526729717818e+00  -2.862150365779e+02   1.311378685511e+01 
8 1 -4.191876296881e+02   1.435494146591e+02   4.670797658748e+00 
8
Step 30000
1 1 -2.156434947067e+02   5.100327263520e+02  -2.813449558431e+01 
2 1  2.097706433445e+02  -1.632675231105e+01  -3.202462296063e+02 
3 1 -2.634107920671e+01   4.583188882192e+02  -2.270820763880e+02 
4 1  6.351366085722e+01  -1.655025343578e+02  -7.961606498539e+01 
5 1  6.902331980849e+02  -1.775681359864e+01   4.325711867176e+02 
6 1  9.765242925672e+01   2.427180497923e+02   1.688357535019e+02 
7 1 -2.677512957425e+01  -1.070706426694e+02  -2.447068823587e+02 
8 1 -5.660855909867e+02   2.696349375730e+02  -3.313805448589e+02 
8
Step 31000
1 1  3.252000914319e+02   1.409844833438e+02  -6.805049142159e+01 
2 1  2.077101804874e+02   1.538532267620e+02  -2.921150267084e+02 
3 1  3.551987178336e+02   1.585507156192e+02  -2.479572397558e+02 
4 1 -9.869213423677e+01  -4.435232832142e+02  -5.442139066011e+02 
5 1  9.106039987085e+01  -2.661018785892e+02   1.158241909358e+02 
6 1 -2.318680086308e+02  -1.980490735047e+02  -3.454637510804e+01 
7 1 -4.589590913984e+01   3.030725800332e+02  -1.248052154830e+02 
8 1 -1.097459410347e+02   2.376685792022e+02  -4.629405414007e+02 
8
Step 32000
1 1  3.391903804290e+02  -3.611954482773e+02  -7.758466562453e+01 
2 1 -1.403726355911e+02   2.075203298852e+02   1.483324567250e+02 
3 1  3.208410959988e+02  -2.386360242957e+02   1.540405323252e+01 
4 1 -8.966092981512e+01  -3.972248304562e+02  -5.784203217028e+02 
5 1 -4.820867292745e+02  -2.328457022579e+02  -2.228410003589e+02 
6 1 -3.516746491178e+02  -4.351023758970e+02  -1.620545624933e+02 
7 1 -2.658705650947e+01   5.888391741052e+02   2.297466161584e+02 
8 1  5.312470566378e+02   2.882794540649e+01  -1.954911133257e+02 
8
Step 33000
1 1 -1.400620173882e+01  -5.730392124417e+02  -2.654949387152e+02 
2 1 -3.418426563249e+02   8.737985323917e+01   7.357086947368e+02 
3 1 -6.890067650449e+01  -3.723499005502e+02   1.616670834978e+02 
4 1  1.210380436265e+02  -9.806956829148e+01  -1.448826622463e+02 
5 1 -5.198755837154e+02  -6.833945768139e+00  -3.279232309166e+02 
6 1 -1.718983471519e+02  -2.705232025104e+02  -2.741837562860e+01 
7 1  2.996699357700e+01   3.996906817220e+02   3.211975399512e+02 
8 1  6.815681896056e+02  -2.642047142243e+02   2.421824565823e+02 
8
Step 34000
1 1 -2.439732490726e+02  -2.060536497356e+02  -4.801791659726e+02 
2 1 -5.978350062336e+01  -2.192823734662e+02   7.473711086690e+02 
3 1 -2.843549814378e+02  -1.823959121846e+02  -3.398854985515e+01 
4 1  1.490630350414e+02   1.617174797871e+02   2.583606548819e+02 
5 1 -2.097237250517e+02   1.823764198319e+02  -1.792912506340e+02 
6 1  1.314356769179e+02  -9.548700078292e+00   1.922033821174e+02 
7 1  4.153262234388e+01  -1.285504201351e+02  -3.124943730942e+01 
8 1  2.538273059743e+02  -4.074194582844e+02   4.358713874240e+02 
8
Step 35000
1 1 -1.385333050674e+02   3.839704112902e+02  -4.881716673613e+02 
2 1  2.689608835877e+02  -3.640622137607e+02   1.473424392496e+02 
3 1  1.611886206964e-01   4.450797506459e+01  -3.060413809118e+02 
4 1 -1.303230774559e+02   2.144970084438e+02   2.377030778760e+02 
5 1  5.096831511326e+01   4.219513154374e+00   1.586357111588e+02 
6 1  2.276193749927e+02   4.780814810658e+01   1.708864300850e+02 
7 1 -6.615978744054e+01  -4.539891622826e+02  -4.036859145145e+02 
8 1 -3.559304138329e+02  -1.658575382993e+02   1.991844779529e+02 
8
Step 36000
1 1  4.763041744172e+01   5.643939929668e+02  -6.199278153943e+01 
2 1  1.881948776598e+02  -1.273569539553e+02  -4.244785854980e+02 
3 1  4.341069062558e+02   6.514817411693e+01  -2.210520280602e+02 
4 1 -4.211486170048e+02   1.289987671501e+02   3.991695880636e+01 
5 1  9.492279454592e+01  -2.126718642233e+02   2.374679438706e+02 
6 1  4.126208513209e+01  -8.701872572055e+01  -7.841728665742e+01 
7 1 -2.166166656035e+02  -2.719591065000e+02  -3.109748115205e+02 
8 1 -5.955598434470e+02   1.827721767978e+02  -1.249335550707e+02 
8
Step 37000
1 1  8.009570051024e+01   2.037660860764e+02   5.389604408248e+02 
2 1 -1.492870622991e+02   1.638838031645e+02  -4.197394282226e+02 
3 1  4.033955358717e+02  -3.647014710380e+01   2.018323687258e+02 
4 1 -3.975659051220e+02   7.552281309221e+01   6.416310271231e+01 
5 1  1.501209191373e+02  -1.479060505915e+02  -5.089269442129e+00 
6 1 -1.328352487979e+02  -1.369360214468e+02  -2.311717387715e+02 
7 1 -1.843142014132e+02   1.385905841341e+02   1.448938149226e+02 
8 1 -3.346752183952e+02   3.352849907391e+02  -1.733921797389e+02 
8
Step 38000
1 1  1.942111644817e+01  -3.265150765434e+02   7.927413094273e+02 
2 1 -2.500266199882e+02   1.530505615912e+02  -9.041192241362e+01 
3 1 -1.395669092701e+02  -6.272159227562e+01   5.119026266650e+02 
4 1  5.178424434668e+01   1.012858621558e+02   2.633191887242e+02 
5 1  3.226682525851e+02   1.747395212173e+02  -2.493854466663e+02 
6 1 -8.474258177069e+01   8.209506475742e+01  -1.115543120091e+02 
7 1  1.173433202880e+02   3.032206239706e+02   4.397957137803e+02 
8 1  6.795366770771e+01   2.482232334828e+02   2.391070866441e+01 
8
Step 39000
1 1  3.625195579653e+01  -5.150947233229e+02   4.901289224560e+02 
2 1 -1.699468598342e+01   2.452690323350e+01   1.377831067359e+01 
3 1 -5.486826309374e+02   1.575116255593e+01   3.243043782344e+02 
4 1  4.758045999630e+02   1.289399529867e+02   2.399553417372e+02 
5 1  3.738995192091e+02   3.787854761006e+02  -2.004133022721e+02 
6 1  1.138761123920e+02   4.196858690195e+02   8.175100264515e+01 
7 1  4.688287351092e+02   4.642527536012e+01   2.289782561216e+02 
8 1  2.356222163366e+02   6.635283510769e+01   1.348683361377e+02 
8
Step 40000
1 1  1.444153513735e+02  -2.162996673308e+02  -8.989323434812e+01 
2 1  2.134906528133e+02  -4.411323799481e+00  -1.643708021023e+02 
3 1 -4.035584878569e+02   1.567444389366e+02  -1.422946818918e+02 
4 1  4.354979418716e+02   4.838436438934e+01  -9.773161783881e+01 
5 1  9.217447892333e+01   2.307253558521e+02   4.362261919410e+01 
6 1  1.511166607095e+02   5.325678611420e+02   5.269059713325e+01 
7 1  4.744131753831e+02  -3.169776728309e+02  -2.175966793414e+02 
8 1  1.683322978465e+02  -1.801539902641e+01   1.112170399399e+01 
8
Step 41000
1 1  1.480840045543e+02   2.124965870257e+02  -3.928511432321e+02 
2 1  6.927569139790e+01   2.698405685938e+02  -2.123544617900e+02 
3 1  7.891031640393e+01   1.538003743187e+02  -4.023947153090e+02 
4 1  7.711043505223e+01  -1.506065955331e+02  -3.325890716871e+02 
5 1 -2.989832932999e+02  -5.116458304666e+01   1.536856087161e+02 
6 1  2.444030973651e+01   2.013605748480e+02  -1.328474103604e+02 
7 1  2.407830720316e+01  -3.690755554545e+02  -3.733221885931e+02 
8 1  9.309758639708e+01  -7.319826466030e+01  -1.553352794631e+02 
8
Step 42000
1 1 -6.308172686516e+01   4.058537005114e+02  -3.110833496035e+02 
2 1 -1.842849740312e+02   3.856122029048e+02   8.177381224983e+01 
3 1  3.612809421980e+02   1.102713875236e+02  -2.516202594834e+02 
4 1 -1.280442185555e+02  -3.429683481197e+02  -1.219109179243e+02 
5 1 -3.796598934436e+02  -1.566889398901e+02   6.133682760396e+01 
6 1 -8.327684060616e+01  -2.879568032403e+02  -1.386485852955e+02 
7 1 -5.079256208364e+02  -5.468524232348e+01  -1.289029470265e+02 
8 1  1.492498337695e+02  -2.449684976669e+02  -1.484659066860e+02 
8
Step 43000
1 1 -2.054390888356e+02   2.709763495498e+02  -1.501892311259e+02 
2 1 -1.285564418228e+02   3.333754690179e+01   3.709390866454e+02 
3 1  1.712762209299e+02   3.421384072344e+01   4.848366773746e+01 
4 1 -7.912842892042e+00  -3.266130571263e+02   2.576409144062e+02 
5 1 -1.079133209989e+02  -5.982204365510e+01  -1.599198188103e+01 
6 1 -1.961440455139e+01  -4.737526111025e+02   1.426061818203e+02 
7 1 -6.049339532211e+02   2.941558468122e+02   1.519024262432e+02 
8 1  1.801045431636e+02  -3.413943069128e+02  -2.609652309482e+01 
8
Step 44000
1 1 -6.757824835742e+01   7.474031013674e-01  -1.402726724944e+02 
2 1  1.515471717132e+02  -4.751340900551e+02   2.673469232489e+02 
3 1 -1.814256385011e+02  -9.721992185825e+01   1.241457309716e+02 
4 1  1.169126956582e+02  -3.068777723572e+01   2.546727393922e+02 
5 1  1.271504052093e+02   1.025392857141e+01   6.906733865286e+01 
6 1  7.200844107064e+01  -1.868394892149e+02   3.838631768195e+02 
7 1 -1.650132607861e+02   3.268478317478e+02   1.526008300590e+02 
8 1  3.569780982704e+01  -1.855100568487e+02  -8.387149664103e+00 
8
Step 45000
1 1  1.919796769690e+02  -1.590629992067e+02  -2.147432466981e+02 
2 1  3.111174063436e+02  -5.524092836462e+02  -7.977180570057e+01 
3 1 -2.688134761248e+02  -2.283786511465e+02   1.326924476398e+01 
4 1 -1.002160205327e+02   3.193697443295e+02  -1.974061574220e+02 
5 1 -2.302205211058e+01  -1.156656199946e+02   1.838123718454e+02 
6 1 -1.946114804969e+01   1.376714383865e+02   2.084850654637e+02 
7 1  3.766644955524e+02   4.529318561095e+01   6.067309731177e+00 
8 1 -2.256065594709e+02   1.602132759680e+02  -8.653926975281e+01 
8
Step 46000
1 1  1.761388903670e+02  -2.210042355376e+02  -8.631421992420e+01 
2 1  8.840114875586e+01  -1.844730700266e+02  -2.530120342658e+02 
3 1  5.375172041904e+01  -1.744025482554e+02  -2.331759532444e+00 
4 1 -4.769446453766e+02   4.354437070424e+02  -5.562360586533e+02 
5 1 -2.882226257872e+02  -2.754352325963e+02   8.704398795027e+01 
6 1 -2.149220817647e+02   7.598843859500e+01  -2.183498978703e+02 
7 1  5.138451761100e+02  -2.480997047022e+02  -4.078347211387e+00 
8 1 -3.785260283388e+02   3.807272218383e+02  -2.388194110703e+01 
8
Step 47000
1 1 -1.331440259826e+02  -1.340255791311e+02   2.007005099708e+02 
2 1 -2.580265601826e+02   2.479605188109e+02  -7.988274225051e+01 
3 1  3.444431270446e+02  -1.141858470820e+01   1.505717276116e+02 
4 1 -4.957138817347e+02   1.312280115213e+02  -3.790649598506e+02 
5 1 -1.503625398475e+02  -2.113590886080e+02  -1.284304270453e+02 
6 1 -2.299255878563e+02  -2.444610871793e+02  -3.590732622670e+02 
7 1  1.542984589799e+02  -2.242220245156e+02   1.395740012273e+02 
8 1 -2.269066690117e+02   1.787957820290e+02   2.598422484292e+02 
8
Step 48000
1 1 -3.482127389374e+02   1.696129546554e+00   3.252329334008e+02 
2 1 -3.626770865219e+02   3.129154873407e+02   1.926716964791e+02 
3 1  2.228972470688e+02   1.232752703504e+02   2.780826152655e+02 
4 1  1.109515643347e+01  -2.256411873267e+02   1.391368453551e+02 
5 1  3.679943719936e+02   8.574180782463e+01  -1.881528118490e+02 
6 1  4.374273282756e+01  -3.646120838164e+02  -4.196344856354e+01 
7 1 -2.801399722439e+02   1.050641772136e+02   1.721626281057e+02 
8 1  1.055634116077e+02  -1.880961749438e+02   3.900165221830e+02 
8
Step 49000
1 1 -2.532881271618e+02   1.003866655460e+02   2.458739185947e+02 
2 1 -7.172106211809e+01   7.382192398117e+01   1.407323494544e+02 
3 1 -1.044446736271e+02   2.087245425028e+02   9.360472137848e+01 
4 1  4.587037152485e+02  -3.563832397014e+02   3.039773792586e+02 
5 1  7.163485029135e+02   3.324972121693e+02  -5.469300110724e+01 
6 1  3.480652663242e+02   2.592700980164e+00   3.169120914462e+02 
7 1 -4.127992776339e+02   4.547196162913e+02  -3.042669070025e+01 
8 1  2.868765429976e+02  -2.635445979246e+02   2.155112614219e+02 
8
Step 50000
1 1  9.864428018750e+01   1.617093329120e+02   3.096276393955e+01 
2 1  2.651684385951e+02  -6.993528188927e+01  -1.017699993659e+02 
3 1 -2.764949354608e+02   1.719851140137e+02  -3.519362882047e+02 
4 1  3.933195643986e+02  -1.988353711415e+02   1.488833255616e+02 
5 1  3.337528824336e+02   3.056217362021e+02   8.635156668302e+01 
6 1  3.203827580338e+02   4.965011148915e+02   1.986907979760e+02 
7 1 -1.616162853687e+02   4.199863057782e+02  -3.169644180655e+02 
8 1  1.710861432133e+02   5.522862964345e+01  -1.771173248823e+02 
8
Step 51000
1 1  3.693310435686e+02   2.698676188919e+01  -7.481337143997e+01 
2 1  2.842627145012e+02   9.542396617900e+01  -1.492308292388e+02 
3 1 -1.956285352026e+02  -6.831628996480e+01  -6.360504558579e+02 
4 1  5.679395887830e+01   1.733293398870e+02   1.060987432970e+02 
5 1 -4.146659570266e+02   4.089673859803e+01  -9.241372979913e+00 
6 1 -3.107596716889e+01   5.453531630821e+02  -2.699947414272e+02 
7 1  2.398016740308e+02  -1.144857738007e+02  -2.806041782884e+02 
8 1 -1.354242863632e+02   4.198197071100e+02  -4.479977321270e+02 
8
Step 52000
1 1  2.422908857872e+02  -2.283317439728e+02   9.763245278091e+01 
2 1  7.981246678885e+01   2.430148392520e+02   3.850615291754e+01 
3 1  1.335108176130e+02  -2.286880768377e+02  -3.652041149055e+02 
4 1 -1.920438173100e+02   3.505308680641e+02   9.013949063047e+01 
5 1 -7.957252884342e+02  -2.407575147848e+02  -1.566318929702e+02 
6 1 -3.086902853903e+02   7.739513816063e+01  -4.568152001554e+02 
7 1  4.215524162209e+02  -6.488225062516e+02   4.853533971745e+01 
8 1 -1.301821068028e+02   3.273044492128e+02  -2.832313691048e+02 
8
Step 53000
1 1 -7.091913236947e+01  -2.551351676105e+02   1.309088976639e+02 
2 1 -8.497208441261e+01   2.107383489592e+01   1.545599080646e+02 
3 1  3.077540484707e+02  -1.403338040548e+02   2.852331661275e+02 
4 1 -3.316111991684e+01   9.308358533194e+01   6.618909659627e+01 
5 1 -4.168357658516e+02  -2.334722730056e+02  -1.378302156992e+02 
6 1 -2.287950447322e+02  -3.753474462595e+02  -7.521377823539e+01 
7 1  2.613495907004e+02  -6.027357903042e+02   3.046328680856e+02 
8 1  1.398923735946e+02  -1.748505296577e+02   7.935598074126e+01 
8
Step 54000
1 1 -1.869719671759e+02   4.718762431551e+01  -1.807063284355e+02 
2 1 -9.864810572988e+01  -3.270359687618e+02  -7.246221266041e+01 
3 1  1.099899959687e+02   6.050076458770e+01   7.488541367097e+02 
4 1  2.477362892192e+02  -2.373012294638e+02   1.885936182730e+01 
5 1  2.142040614032e+02   3.728853893106e+00   5.121275672198e+01 