8
Step 0
1 1 -5.146983603824e+02   1.434692463961e+02   2.272585503517e+02 
2 1 -6.268573224989e+01   2.545643563522e+02  -3.785437431381e+02 
3 1 -1.847062021339e+01   1.986147104538e+02  -1.553454428606e+02 
4 1  1.310098613687e+02   4.728752768686e+02   6.196589026359e+02 
5 1 -9.578247776891e+01   5.598454624399e+02   1.557104222487e+02 
6 1 -2.592674952319e+02  -3.716990633033e+02  -2.397761882235e+02 
7 1 -3.685740970401e+02  -2.079503254006e+02   4.084754334187e+02 
8 1 -2.312460964129e+02  -7.397459190730e+02  -1.725994513245e+01 
8
Step 1000
1 1 -2.092786723936e+00  -1.807755828914e+02   2.453318540759e+02 
2 1  1.285049868920e+02  -1.339223461778e+02   3.364484241560e+01 
3 1 -6.303326401407e+01   7.050257473327e+01   4.388026448080e+02 
4 1  2.518991399800e+00   2.698357563535e+02  -2.591680994044e+01 
5 1 -3.820716003274e+02   1.871266139421e+02   8.369195435000e+01 
6 1  5.598439970999e+02  -5.148434726671e+02  -2.249266289346e+02 
7 1 -3.458618588268e+02   1.915731929726e+02   1.744228417672e+02 
8 1  1.527763434801e+02  -4.761263576666e+02   1.423437181668e+02 
8
Step 2000
1 1 -3.342898706799e+02   3.230575105657e+02   1.330913482399e+02 
2 1 -7.242756344518e+01   2.411687517518e+02  -4.722779921244e+01 
3 1  2.384713322930e+02  -8.739205244556e+01   3.595885696614e+02 
4 1 -6.883713032054e+01   4.332024065792e+02  -4.043612868494e+02 
5 1 -1.069435617400e+02  -2.610988402921e+02   2.661947007651e+02 
6 1 -8.474835209627e+01  -2.837929991433e+02   1.687371011616e+02 
7 1 -1.587938274135e+02  -8.612039988304e+01   2.427807792337e+02 
8 1 -9.582903463559e+01  -3.130901768444e+01   2.679236526412e+02 
8
Step 3000
1 1  7.738762477916e+01  -3.732183373473e+02   1.142384144767e+02 
2 1 -4.838264555550e+01   3.595916919540e+01   3.967955416686e+02 
3 1  3.406750010003e+02  -4.548764186925e+02   8.449202121932e+01 
4 1 -7.068487251187e+02   5.085454193806e+02  -5.356208146333e+02 
5 1  3.989469034341e+02  -4.830990242514e+02   2.798029162165e+02 
6 1 -2.878777440394e+02  -7.857687929570e+01   1.292093112459e+02 
7 1  2.210896397625e+02  -4.344288288919e+02   3.062032043407e+02 
8 1  1.531128662404e+01   3.284917678110e+01   4.153861537532e+02 
8
Step 4000
1 1  9.152898754272e+01   5.156313970476e+02   2.828772693694e+02 
2 1 -1.710938083828e+02  -4.914760286729e+01   1.866919983729e+02 
3 1  4.492510469120e+02  -2.773422137370e+02  -2.100134597346e+02 
4 1 -2.369510760748e+02   5.015689027831e+01  -1.769226454344e+02 
5 1  2.554140398107e+02  -2.645821331793e+02   4.087952547235e+02 
6 1  1.041265166857e+02   9.138253709132e+01   2.669523562211e+02 
7 1  8.193775373485e+01   3.971121913887e+01   2.758433818665e+02 
8 1 -3.574532010816e+02   1.838929290486e+02  -1.198353717743e+01 
8
Step 5000
1 1  1.480281488963e+02   8.031454267734e+01   9.645884914077e+01 
2 1 -1.489810021731e+02  -2.137167877130e+02   3.262969606585e+02 
3 1  3.269604308450e+02  -3.737285393048e+02   1.770474299416e+01 
4 1  8.731720347608e+01  -7.989947220588e+01  -4.066070525436e+02 
5 1 -4.408527096883e+02  -6.946858763566e+01   2.315616240532e+02 
6 1  2.896743201431e+02  -2.322997049782e+02   2.150621803885e+02 
7 1  2.192008122679e+01   2.837351535319e+02   1.992915320406e+02 
8 1  3.229435749956e+02  -1.059238795998e+02   1.014173763298e+02 
8
Step 6000
1 1  1.698234907086e+02   5.815737825593e+01  -1.613278970414e+02 
2 1  4.356838941961e+01  -1.092397022049e+02   4.408252869960e+02 
3 1  4.443157478722e+02  -7.131065283641e+02   2.007418096740e+02 
4 1  5.367333204741e+01   1.401752419106e+02  -6.401672178174e+02 
5 1 -6.142067890353e+02  -1.759328683900e+02   3.612799098165e+02 
6 1  4.309262677669e+02  -1.064601756768e+02   2.382414381147e+02 
7 1 -8.081005726215e+01   5.366874260198e+02   1.685020924046e+02 
8 1  6.692351077443e+01   2.623260081996e+02  -2.967562895313e+02 
8
Step 7000
1 1 -1.033886162725e+02   2.664444292855e+02  -3.081966014691e+02 
2 1  4.348378806130e+01  -1.447626226608e+02   4.416825911616e+01 
3 1  6.643640544576e+02  -6.244405992374e+02   2.933306249692e+02 
4 1 -2.301671157503e+02   1.467259896930e+02  -5.479698506900e+02 
5 1 -3.032252224319e+02  -6.219470626001e+02   1.717837505963e+02 
6 1  4.421628230878e+01  -2.008346101044e+02   8.660790700942e+01 
7 1  1.287500004495e+02   1.279867586284e+02   3.668556056478e+02 
8 1  6.378514661559e+01   5.164937478193e+02  -1.480215725420e+02 
8
Step 8000
1 1  1.413259812053e+02   1.937164537092e+01   7.503709698366e+01 
2 1  4.064980734933e+02  -5.763482629278e+02  -7.374701177228e+01 
3 1  4.871440084426e+02  -3.290113196244e+02   4.100797463161e+02 
4 1  2.337321148657e+01   1.945595065895e+02  -1.147216105810e+02 
5 1 -1.370344041579e+02  -7.601103281127e+01   6.315614093904e+01 
6 1 -2.204050350847e+02   3.237207745632e+02  -1.411321908077e+02 
7 1  2.430229578793e+02   2.271394005684e+02  -2.199977616962e+02 
8 1  2.513050592880e+01   5.421063188892e+02  -5.124303201030e+02 
8
Step 9000
1 1 -9.095739944259e-01   4.584321825520e+02  -1.764313855783e+02 
2 1  3.927969163118e+02  -1.680954895662e+02  -2.373088662750e+02 
3 1  2.240359028167e+02  -3.255467735600e+02   2.062497466275e+02 
4 1  4.582162750714e+01  -8.686858719327e+01  -2.317354700599e+02 
5 1 -2.705156679045e+02  -3.914652412788e+02   1.997451667381e+02 
6 1 -9.235875337635e+00  -2.344529099553e+02  -3.502635731586e+02 
7 1 -1.021060249695e+02   3.898493043034e+02  -1.796950010604e+02 
8 1 -6.093602008467e+01   6.396765886855e+02  -3.081154091941e+02 
8
Step 10000
1 1  3.355937545662e+02  -2.813636226102e+02  -1.912789442150e+02 
2 1  3.096986627608e+00  -4.200658165775e+02  -2.170911882189e+02 
3 1  2.687121382455e+02  -2.218653411690e+01   3.856184652272e+02 
4 1 -6.388975366087e+01   2.647739017774e+02  -1.921658828769e+02 
5 1 -2.189789047741e+02  -7.730542732105e+01   1.162461642592e+02 
6 1  2.942541579978e+02  -2.424423050449e+01  -5.154771935614e+02 
7 1 -3.415675105705e+02   3.345404079623e+02  -3.674557980380e+02 
8 1  4.364878986721e+01   2.865665657465e+02  -5.457996483139e+02 
8
Step 11000
1 1  3.332120326988e+02   2.227955551402e+02  -1.532047261023e+02 
2 1  1.960915654146e+02   7.938010604245e+01  -1.417582053224e+02 
3 1 -9.448863312383e+01   3.060334686960e+01   1.842623141854e+02 
4 1 -2.296427113142e+01   4.292142555795e+01  -9.580462513698e+01 
5 1 -3.525184676626e+02  -8.843624368845e+01  -1.911320514236e+01 
6 1  4.868855981205e+01   5.027503911907e+01   5.937401798663e+01 
7 1  3.204587865138e+00   9.312215574551e+01  -2.791191059280e+02 
8 1 -1.552873110819e+02   7.688019143423e+02  -6.834745606526e+02 
8
Step 12000
1 1  7.321320639401e+01  -4.008766260692e+02  -6.425711350734e+01 
2 1  7.571883551349e+01  -5.533525001546e+01  -1.653717539505e+02 
3 1 -6.024484556462e+02   2.539104017909e+02   4.560097440862e+02 
4 1  2.585922682833e+02   3.186548048688e+02   2.900523698948e+02 
5 1 -4.588193579330e+01   5.787177539657e+01  -1.158169581980e+02 
6 1 -1.438254935491e+02   4.506179228665e+02  -2.499922474868e+02 
7 1  1.702314066045e+02  -5.613565688613e+00  -4.347266435895e+02 
8 1 -2.425922092594e+02   1.501146161517e+02  -4.534311901715e+02 
8
Step 13000
1 1  2.382862988773e+01  -1.496864310285e+01   8.831762076180e+01 
2 1  2.849631380930e+02  -1.495147495861e+02  -2.831331971134e+02 
3 1 -3.733827337393e+02   3.284921068392e+02   2.686021856595e+02 
4 1  2.299691462509e+01   1.160993825526e+02   9.393492174311e+01 
5 1 -2.974292012857e+02   6.049517050057e+01  -9.185635963173e+01 
6 1  9.336202451887e+01   1.184557051005e+02  -4.015323272165e+02 
7 1 -9.545512191886e+01   4.001535868322e+02   3.192993647759e+01 
8 1 -3.737848923452e+01   2.217511163078e+02  -3.884240005659e+02 
8
Step 14000
1 1 -3.299203940401e+02  -2.886364684125e+02   2.513262471369e+01 
2 1  5.129444159700e+01  -2.815524430705e+02  -2.956394963229e+02 
3 1 -1.769580972282e+02   3.931657807548e+02   1.319849072690e+01 
4 1  1.936262817766e+02   1.725361139776e+02   1.197670043515e+02 
5 1 -4.293560714433e+02   3.091582750755e+02   5.069777798021e+01 
6 1  3.597518371219e+02  -4.394499134208e+02  -3.521271550428e+02 
7 1 -2.237447140172e+02   9.115433665565e+00   3.058014152142e+02 
8 1  7.035740207559e+01   9.690271425240e+01   8.063830341891e+01 
8
Step 15000
1 1 -4.545006144954e+01  -2.306567841687e+02   1.433572119392e+02 
2 1  2.960953413916e+00  -4.223383464368e+01  -3.432902175532e+01 
3 1 -1.153819891983e+01   2.130280241530e+02   2.858410968769e+02 
4 1  2.398333522588e+02   3.061797196996e+02   1.318458197930e+02 
5 1 -1.559304289094e+02   4.226090836463e+02  -3.181060657590e+01 
6 1  3.039757747447e+02   2.373246859938e+02  -3.263207738432e+02 
7 1  2.097610052739e+02  -7.674366442707e+01   2.745005297321e+02 
8 1 -1.093419042332e+02   1.233868272059e+02   2.131785719238e+02 
8
Step 16000
1 1 -2.491492376510e+02   3.381066174572e+02   3.859627987748e+02 
2 1 -1.860661216847e+02  -1.610098921017e+02  -2.962127105089e+02 
3 1 -1.080388962137e+02  -1.183847161667e+02   1.695490456125e+02 
4 1  2.461423680293e+02   2.109257017653e+02   4.557597041706e+02 
5 1  1.434774159377e+01   2.367343992574e+02   9.978483683007e+01 
6 1  2.675448896669e+02   3.792690574396e+02   2.569616001457e+01 
7 1  1.762737754955e+02  -4.482526440930e+02   5.170147218971e+02 
8 1 -3.012219610389e+02  -1.229900034996e+02   3.579990839007e+02 
8
Step 17000
1 1  1.920074429719e+02  -8.207735657350e+01   4.803896561342e+02 
2 1  3.435948827248e+01  -1.152607951102e+02   1.437460070253e+02 
3 1 -5.174891918499e+02   9.494075090703e+01  -1.009081397975e+02 
4 1  4.807991703694e+02  -1.800496209441e+02   5.760385241690e+02 
5 1  3.940105131934e+02   2.823654374170e+02  -3.166103449112e+02 
6 1  1.799520492664e+02   5.110697527554e+02  -7.880133936708e+01 
7 1 -8.538983267601e+01  -3.742537022439e+02   1.864027801316e+02 
8 1 -4.221595568520e+01  -4.254312001960e+02   3.892335816068e+01 
8
Step 18000
1 1  5.008606896578e+00   8.960369142320e+01   7.176238139892e+01 
2 1  2.623210054744e+02   2.879847110272e+01  -2.677073174775e+01 
3 1 -1.386069533899e+02   1.536042893265e+02  -1.398273979218e+02 
4 1  3.730585680007e+02  -4.733912221926e+02   5.245636903813e+02 
5 1 -1.262539452238e+02   2.918305243658e+02   1.744849287478e+02 
6 1  1.038706516784e+02  -3.506228572503e+01   2.337173345756e+02 
7 1  7.105850227669e+01   3.990374143114e+01   5.849762231518e+02 
8 1  2.536874057992e+02  -2.625188405192e+02   3.505282729825e+02 
8
Step 19000
1 1 -2.967161491137e+02  -8.988924626655e+01   5.480991952126e+01 
2 1  3.453771788112e+02   5.301272077551e+01   2.840961142796e+02 
3 1  1.003468575354e+02   4.429449210260e+01   1.847824798887e+02 
4 1  3.705945806218e+02  -2.624592194721e+02   7.408675804337e+01 
5 1  2.017973815853e+02   3.511673840345e+02   8.730411730379e+01 
6 1  5.568379426143e+02  -3.565952057023e+02  -4.207806645623e+02 
7 1 -1.701415150182e+02   1.366740277668e+02   1.593297975869e+02 
8 1  1.391321412065e+02  -5.942372673921e+02   4.926783175506e+02 
8
Step 20000
1 1 -2.129875336951e+02  -5.188079675922e+01  -2.401046881584e+02 
2 1  2.980291837034e+02   3.179511555749e+02   5.060152585559e+02 
3 1  3.312234341695e+02  -1.427538200384e+02   1.056521214499e+02 
4 1  3.403177061102e+02  -2.110833039223e+02   2.534575081511e+02 
5 1 -6.738954544724e+01  -2.318875671277e+01   2.842473040056e+02 
6 1  3.428119322542e+02   2.836091803748e+02  -1.555617599050e+02 
7 1  6.623476654214e+01  -5.845839384661e+01   1.668587664207e+02 
8 1  7.638625568619e+01  -3.785960958485e+02   3.540120059668e+02 
8
Step 21000
1 1 -2.109625830952e+02   1.638927271564e+02   1.527124094890e+01 
2 1  5.776996423070e+01  -9.206536501117e+01   1.973226452550e+01 
3 1  3.649767003341e+02  -5.483039980795e+02  -8.816319305286e+01 
4 1  2.339544595161e+02  -3.123042357550e+02   9.292745624522e+01 
5 1 -1.928111648229e+02  -2.090235467303e+02  -2.999140589426e+02 
6 1 -6.666521055905e+01   1.060244225837e+02  -3.169454133776e+02 
7 1  2.052351262288e+02  -5.120797107012e+02   2.176843301706e+02 
8 1 -2.275704150145e+01  -1.960503632785e+02   1.051507083030e+00 
8
Step 22000
1 1  1.925036484670e+02  -3.412808388026e+02  -3.205216936142e+02 
2 1  2.652620824026e+02   7.498287206589e+01   1.176357968647e+02 
3 1  3.145270430778e+02  -5.456577029567e+01  -1.428028715410e+02 
4 1 -3.323756506373e+01  -6.982292606303e+01   6.869675190961e+01 
5 1 -1.223158033408e-01   1.051714400416e+00  -8.297661219044e+01 
6 1  1.939698378282e+02   5.067436175621e+01  -9.086864914178e+01 
7 1 -3.305675311567e+01   1.308274174430e+02   3.172964016526e+02 
8 1  2.279653908587e+02   2.610607555742e+01  -1.904335891556e+02 
8
Step 23000
1 1 -2.555780815895e+02  -1.797222613820e+02  -2.995508569770e+02 
2 1 -3.915412173166e+02   3.015683465639e+01  -6.414075696844e+01 
3 1  1.884971383742e+02  -2.010047517671e+02  -1.714749895784e+02 
4 1  4.513302488336e+02  -6.190170108761e+02   6.271146566275e+01 
5 1 -3.570002604349e+02   4.850563707414e+02  -1.623124901506e+02 
6 1  1.668750130654e+01  -5.589176439768e+00  -1.051457023637e+02 
7 1 -6.686374756858e+01  -7.222956902507e+01   4.083780265527e+02 
8 1  3.049918167057e+02  -2.752998355949e+02  -4.070192196134e+02 
8
Step 24000
1 1  2.080592608664e+02  -1.901433287591e+02  -4.914511551636e+02 
2 1 -1.188863568217e+02   2.029281975785e+02   1.989410917477e+02 
3 1 -6.669628356580e+01  -2.289913371690e+02  -3.995354024488e+02 
4 1  1.769578648584e+02  -3.753839194485e+02  -2.461908225215e+02 
5 1 -2.471036800447e+02   4.048117472879e+02   1.477368274627e+02 
6 1 -1.417152809661e+02   3.692853611930e+01  -3.167233355548e+01 
7 1 -1.979738752999e+00   1.076376123791e+02  -1.844436707965e+02 
8 1 -1.252827712870e+02   3.076921371681e+01  -6.833439013580e+02 
8
Step 25000
1 1 -7.504146759274e+01  -4.427662781317e+02  -8.562991865873e+02 
2 1 -3.168285811818e+02  -2.246785665687e+02   1.596558796479e+02 
3 1 -1.658769799810e+02  -1.866975953047e+02  -4.153106947995e+02 
4 1 -2.088061490160e+02   9.220829912557e+01  -2.045499101545e+02 
5 1 -3.009453941246e+02  -4.716070826207e+01   2.832656098318e+01 
6 1 -1.496087749446e+02   2.656721097287e+02   2.609536172246e+02 
7 1 -2.710949220242e+02   3.839197064186e+01  -5.812689801145e+01 
8 1 -1.927347173088e+02  -6.592523644873e+01  -4.296914344164e+02 
8
Step 26000
1 1  2.798795799263e+02  -6.896672805619e+01  -5.012344846221e+02 
2 1  1.340660432108e+02   3.059036002565e+02   9.768683855205e+00 
3 1  2.100315479373e+02   9.823746033710e+01  -5.067973663491e+02 
4 1 -2.063254301691e+02  -3.155245682833e+02   7.338217074749e+01 
5 1 -4.238660557399e+02  -3.648705941589e+02  -2.544661037167e+02 
6 1 -1.201299844174e+02   3.495058693415e+02  -7.176492849256e+00 
7 1 -4.076104249522e+02   2.318664226162e+02   4.325913831471e+01 
8 1 -2.663084739141e+02   5.269573192704e+02  -7.041147292627e+02 
8
Step 27000
1 1 -1.899819224712e+02  -4.514520501572e+02  -4.548396493210e+02 
2 1 -2.978889453358e+02   3.540308408716e+01  -1.227616636245e+02 
3 1 -2.860357964687e+02   1.686212048461e+02   4.101975472391e+01 
4 1 -3.299136193430e+02   4.253909025784e+01   1.229398711995e+02 
5 1 -2.799847498059e+02  -1.651847703208e+01   2.680031216460e+02 
6 1 -2.663226572997e+02   3.908237401915e+00  -2.265446285855e+01 
7 1 -1.496905601622e+02   7.076236682814e+02   2.685068808095e+01 
8 1 -1.967373135188e+02   8.710958850788e+01  -5.521585194918e+02 
8
Step 28000
1 1 -2.092931191354e+00   6.817225339119e+01   7.866706953484e+01 
2 1 -2.114397963949e+02   3.794514357389e+02  -2.367581842176e+02 
3 1 -1.496777087433e+02  -1.479616070974e+02   1.666634482633e+02 
4 1  6.384409262568e+01  -2.549896479018e+02  -1.590699490478e+01 
5 1 -4.744071874574e+02  -4.896238369719e+02   2.290674453148e+02 
6 1 -3.928782057333e+02  -2.233275744609e+02  -2.145064182987e+02 
7 1 -4.811543512688e+02   6.308858330596e+02  -2.098689583386e+02 
8 1 -4.122708655856e+02   2.530847553241e+02  -8.157662499461e+02 
8
Step 29000
1 1  2.188830871090e+02  -1.851963822799e+02  -8.869484555617e+01 
2 1 -3.473516517296e+02   2.698086441337e+02   1.301231337248e+02 
3 1 -7.139460238398e+01  -8.826072432815e+01   3.209324409917e+02 
4 1 -1.125906463537e+02  -1.305286547626e+02  -7.443905755813e+01 
5 1 -6.665563604306e+02   3.636777035205e+01   5.034997513546e+02 
6 1  2.057224753098e+01   3.652098261132e+02   1.367654447042e+02 
7 1 -3.916680281430e+02  -2.195004879866e+01   1.971581226107e+00 
8 1 -3.158309322093e+02   5.147162154820e+02  -2.373870795639e+02 
8
Step 30000
1 1  5.581185387539e+01   3.346171469617e+02   5.510350418078e+01 
2 1 -3.373085412219e+02  -7.243825632316e+01   1.268590522257e+02 
3 1 -8.285026148331e+01   4.503769415660e+01   2.640461840055e+01 
4 1 -1.902899239850e+02   1.010367930636e+02   1.459537748146e+02 
5 1 -4.208461995657e+01  -2.487642304878e+02   5.318310863123e+02 
6 1 -1.923299452272e+02  -2.918407969655e+02   3.500753178832e+02 
7 1 -2.803476968959e+02   3.248610586380e+02   1.324230609731e+02 
8 1 -1.229572255870e+02   4.760628227106e+02  -1.625229761361e+02 
8
Step 31000
1 1 -1.811366904215e+02   1.544706914218e+02   4.295869524879e+02 
2 1  1.499268044533e+02  -2.901465871849e+02   1.553230029680e+02 
3 1  1.064627537667e+02   3.030365084826e+02   2.112965724958e+02 
4 1 -2.987152571279e+02   1.136092064944e+02   4.934363159387e+02 
5 1 -2.087221994029e+02  -1.871828405685e+02  -1.115556675552e+02 
6 1  7.115577963977e+01   9.430561700775e+01  -3.778759810286e+01 
7 1 -6.671139428858e+01   4.689158493070e+02   2.895433147322e+02 
8 1 -2.501994552049e+02   1.411437953734e+02   4.156863755122e+01 
8
Step 32000
1 1 -2.882602215294e+02  -2.734494220724e+00   2.488096060982e+02 
2 1  1.276743596163e+02  -2.178886449847e+02  -1.924267808639e+02 
3 1 -5.191251219176e+02   2.378732499320e+02   1.957644947680e+02 
4 1 -4.040365523927e+02  -1.395385296338e+02   4.317578428676e+02 
5 1 -7.908018674737e+01   1.243343464636e+02   6.951719814730e+02 
6 1  3.660570681277e+02   2.336352559462e+01   7.654621143289e+01 
7 1  1.723616553664e+01  -1.204333171779e+02   1.058157255403e+02 
8 1 -1.440644950397e+02  -2.499988896131e+02   2.168818203778e+02 
8
Step 33000
1 1  9.142685836390e+01   3.579197584952e+01   4.491294523480e+02 
2 1  5.390868109712e+02  -9.063137644521e+01  -7.563164414721e+01 
3 1 -1.416168986256e+02  -5.292768230122e+01   4.270213287269e+02 
4 1 -3.751619639362e+01   3.318129054999e+02   7.672018502192e+01 
5 1 -2.690518447540e+01   2.339964422413e+02   4.856929500247e+02 
6 1  4.203213025613e+02  -6.207335380629e+01  -1.569106384084e+02 
7 1  1.991839939834e+02  -1.133449109986e+02   2.833933072214e+02 
8 1  3.051355499547e+02   4.120540896678e+01   6.421197774539e+02 
8
Step 34000
1 1 -8.541752723743e+01  -1.480582009717e+02   3.850044798001e+01 
2 1 -1.092586335469e+02  -1.335799544139e+02  -9.036657062463e+00 
3 1 -1.584088932946e+02  -1.802777696078e+02   3.349794762802e+02 
4 1 -3.271743814470e+02   5.069972657279e+02   9.039524816317e+01 
5 1  4.437359965669e+01   2.920111635331e-01   3.870923855758e+02 
6 1  7.433225272092e+02  -4.437376670387e+01   4.516266464373e+02 
7 1  1.706339059044e+02  -5.472729822098e+02   2.543410118195e+02 
8 1  2.152129706045e+02  -1.426780591923e+02   3.712883950337e+02 
8
Step 35000
1 1  8.802009828707e+01  -1.292174431086e+02   3.216380320220e+02 
2 1 -1.661440784022e+02  -4.582457132395e+02   6.115044701285e+00 
3 1  2.120825430096e+02   3.207998199585e+02   1.631468516494e+02 
4 1 -1.098108390038e+02   5.029867309140e+02  -2.037540213761e+01 
5 1  4.925990342164e+02  -2.101844577663e+02   1.503020263267e+02 
6 1  4.077996793784e+02   9.757245032239e+01  -4.794568348513e+02 
7 1  1.984339404328e+02  -2.082343463954e+02  -1.100053962786e+02 
8 1  4.760481861142e+02  -2.028678921537e+02   5.097175625851e+02 
8
Step 36000
1 1  9.130568449037e+01  -6.787262083466e+01  -2.089212434563e+02 
2 1  1.772031511614e+02  -6.184779345171e+02   2.345511845479e+02 
3 1  1.510029302792e+02   4.304729108977e+02   1.968404141620e+02 
4 1 -5.915492891574e+01   3.982810827460e+02  -2.524587309779e+02 
5 1  2.896025541390e+02  -2.626884099052e+01   2.865109034031e+02 
6 1 -6.692483957957e+01  -2.558595969412e+02  -2.209690630683e+02 
7 1  2.066177667577e+02  -1.737956475269e+02   3.480262301880e+02 
8 1  2.373957127475e+02  -3.359178234698e+02   2.763936670173e+02 
8
Step 37000
1 1  3.795872560240e+02   5.227445500716e+01  -4.401866867633e+02 
2 1  4.072019702894e+02  -2.602594318832e+02  -1.445264482816e+02 
3 1 -4.407635257610e+02   1.679715653513e+02   1.379193331056e+02 
4 1  1.560359605533e+02   1.387596853098e+02  -2.652410375207e+02 
5 1  2.141205410806e+02   1.650999787295e+02  -1.040804857087e+02 
6 1  5.670711043381e+02  -4.483538734760e+01  -1.353515669528e+02 
7 1 -2.063887404286e+02  -2.376464109560e+01  -2.107307243927e+02 
8 1  3.823940183431e+02  -3.276587156938e+01   3.820379122673e+02 
8
Step 38000
1 1  1.237374138013e+02   3.923004199449e+02  -3.750655241971e+02 
2 1  2.689469494587e+02   2.235736165321e+01  -3.198170926091e+02 
3 1 -8.676548364925e+01  -2.271553591343e+02   5.406175319100e+01 
4 1  1.154647577630e+02  -2.998014778974e+01  -1.172118789475e+02 
5 1 -2.506717212236e+02   1.134999911327e+01   2.829912006817e+01 
6 1  1.889447341868e+02   2.489717884566e+02  -5.148271240533e+02 
7 1 -2.937566831528e+02  -6.722054889329e+01  -2.106655037981e+02 
8 1  2.194820079260e+02  -6.554420841791e+01   1.471646272219e+02 
8
Step 39000
1 1 -3.876383819691e+01   2.953887275681e+01  -4.712622063419e+02 
2 1 -1.239666234955e+02   4.577085487581e+01  -9.669284932879e+01 
3 1  1.293788218330e+02   3.044772136988e+00  -3.433266160830e+01 
4 1 -2.074707546765e+02   1.623801933373e+02  -4.492155736593e+02 
5 1 -9.477612131310e+00   1.850318882776e+02  -1.470059144628e+02 
6 1  7.403785068652e+01  -3.198912666140e+01  -7.000494882195e+02 
7 1 -8.513889797374e+01  -1.727700650819e+02  -2.500043137429e+02 
8 1  3.252889294815e+01  -3.676880844756e+01  -2.512017162047e+02 
8
Step 40000
1 1  1.882384994463e+02   4.436052715537e+02  -1.009339831306e+02 
2 1  2.995044784426e+02  -4.510820082190e+01  -1.288025909488e+02 
3 1  2.005011550442e+02   2.612627195066e+02  -2.216179166794e+02 
4 1 -2.559124892947e+02  -5.137626131458e+00  -1.583333213273e+02 
5 1 -1.279096609271e+02   2.197818441186e+02  -1.464320727366e+02 
6 1 -8.208103582137e+01   3.105390021177e+02  -4.328345511283e+02 
7 1 -5.330760830802e+01  -8.462370056007e+01  -3.251214806331e+02 
8 1 -2.393768740015e+02  -2.262448284725e+02  -1.388939270263e+02 
8
Step 41000
1 1 -8.165891496948e+01   7.081805386246e+01  -8.952835487726e+02 
2 1  2.454951320328e+02  -2.465702528777e+00   9.909913103037e+01 
3 1 -2.718973312787e+02   3.157098884741e+02   4.716796171777e+00 
4 1 -9.776349326324e+01   2.847664782941e+02  -3.458579369314e+02 
5 1 -3.404252932505e+02   3.563433756529e+02  -2.508633689547e+02 
6 1 -2.149097539392e+02   3.119265376536e+02  -1.044385803251e+02 
7 1 -6.405860236159e+01  -5.684006279934e+02   1.686198282667e+02 
8 1  1.646821707461e+02  -2.562955389355e+01  -9.379046121441e+01 
8
Step 42000
1 1  3.798623262706e+02   3.903560745052e+02  -7.874208833313e+01 
2 1  1.033238609538e+02   2.239559172497e+02   2.749812396216e+02 
3 1 -4.927581549234e+02  -3.288905614024e+02   4.629460664787e+02 
4 1  2.172900621279e+02   1.978963369631e+02  -7.150800239494e+02 
5 1 -1.781541683233e+02   4.620965621609e+02  -3.147708773987e+02 
6 1 -4.955029696139e+00  -1.611860901459e+01  -1.443175748081e+02 
7 1 -5.697780091694e+02  -1.950723848667e+02  -4.632154484721e+02 
8 1  1.022536583059e+02   2.902173108946e+02  -2.826044432420e+01 
8
Step 43000
1 1  1.101508532349e+02  -5.513199761792e+00  -3.939195930100e+02 
2 1 -3.887956001402e+01   1.477502593484e+02   4.944748952703e+01 
3 1 -8.099555440962e+01  -3.295266598488e+02   7.064080997277e+02 
4 1  6.022703716363e+01  -3.315480338584e+00   1.053731954657e+02 
5 1 -2.147148055840e+02   2.600058151895e+02   6.426519749621e+01 
6 1 -3.153371824871e+02  -7.190433219468e+01  -1.388009635233e+01 
7 1 -4.695470388604e+02  -8.265255256640e+01  -5.559150415418e+01 
8 1 -3.092959342220e+01   3.923274186321e+02   5.773821676799e+01 
8
Step 44000
1 1  2.964080676631e+02   2.547705417880e+02   4.426322071614e+01 
2 1  3.292357684681e+02   2.454573858245e+02   9.864819216809e+01 
3 1  3.502476129144e+02   2.452488135602e+02   3.384818075933e+02 
4 1  2.750742657350e+02  -2.432481353296e+01   4.400818136971e+02 
5 1  3.356616624209e+02   1.841466500184e+02  -2.492455111314e+02 
6 1 -3.950261421661e+02   4.108092241744e+02  -4.253099474762e+02 
7 1 -4.573934672604e+02  -2.004687201627e+02   5.586573201823e+02 
8 1 -6.926087449695e+01  -8.140263771884e+01   2.431080163306e+01 
8
Step 45000
1 1  3.199876833025e+02  -2.604258324370e+02   6.389535626910e+01 
2 1  3.581001882344e+02   5.724341187527e+02   2.141959386718e+02 
3 1  5.551782072355e+01  -1.447465059484e+01   5.858858968941e+01 
4 1 -5.771492712325e+01  -5.437667430361e+02   6.936578318086e+02 
5 1 -1.858461810821e+02  -1.734309546241e+02   5.501615265569e+02 
6 1 -1.892573825437e+02   2.171292354755e+02  -1.402164703535e+02 
7 1 -2.985527212252e+02   3.540575732599e+02   4.669883379195e+02 
8 1 -1.720377964848e+02  -7.037187641123e+00   4.339733567197e+02 
8
Step 46000
1 1  1.999466537460e+02  -1.059035473528e+02   3.338630804167e+02 
2 1  2.729267744597e+02   7.444275447210e+02   1.547897353358e+02 
3 1  2.717711177569e+02  -4.037715252973e+02   1.161340072628e+02 
4 1  3.234306238018e+02  -4.990192855815e+02   7.859054805871e+01 
5 1 -1.517123519551e+02  -6.710122559117e+01   6.093355803475e+02 
6 1 -6.690068072099e+00  -1.277020171741e+02  -8.868859242931e+01 
7 1 -2.127182334119e+02  -3.433145321756e+01  -1.125817957951e+02 
8 1  2.133013612483e+02   2.112435813224e+02   4.443522557423e+01 
8
Step 47000
1 1  3.073450725176e+02  -4.667417977841e+01   7.868750667193e+02 
2 1  4.941993725493e+01   6.182435104097e+02   7.287860683842e+01 
3 1  2.275478596552e+02  -3.130634156646e+02   8.940950773853e+01 
4 1  2.093360946672e+02  -5.002890138783e+02   9.596145932840e+01 
5 1  1.407790304511e+02  -1.756113313549e+02   8.042194518019e+02 
6 1 -1.766238022847e+02  -9.482526811869e+00   6.513584246370e+02 
7 1 -2.828001721848e+02  -1.296375420204e+02   3.650136231482e+01 
8 1  3.958171868401e+02   1.271509103587e+02   3.238979057267e+02 
8
Step 48000
1 1 -8.450662746097e+01  -2.799616578666e+02   2.961974629745e+02 
2 1 -1.522260376985e+02   2.052632449078e+02  -3.373669283080e+02 
3 1  4.552908335336e+02   2.044031929458e+02  -2.751350846716e+02 
4 1  1.159513628180e+02  -1.198103161384e+02   3.889518377752e+02 
5 1  4.205649864956e+01  -2.520942473064e+02  -1.227498262824e+02 
6 1  4.378697564335e+01  -3.006294622262e+02   6.268871127332e+02 
7 1  4.424741356369e+02  -5.123529331195e+01   2.597281769621e+02 
8 1  4.669861902111e+02  -1.881406750152e+01   7.766645579499e+01 
8
Step 49000
1 1  4.005198274129e+02  -1.812288765235e+02   4.515307435255e+02 
2 1 -2.772674517740e+02  -2.735832445657e+01  -4.600238844979e+02 
3 1 -6.157064575635e+01   9.502500348316e+01  -2.470955336912e+02 
4 1  1.782631864811e+02   8.680708900538e+01   6.204241175503e+02 
5 1  2.428313211353e+01  -3.496795226383e+01  -1.750069691810e+02 
6 1  2.649590002980e+02  -2.953640710295e+02   1.771309041145e+02 
7 1  1.413093633095e+02  -1.321228407186e+02   5.396583023594e+02 
8 1 -8.240165377446e+01  -1.700674466292e+02   2.503089042594e+01 
8
Step 50000
1 1  6.440403600568e+00  -8.786196464189e+01   1.286811207624e+02 
2 1 -5.453038665984e+02  -2.474239910882e+02  -2.088773587454e+02 
3 1 -2.236163724195e+02   1.555605166502e+02  -4.060602278631e+02 
4 1  4.157874346192e+01  -4.039582925932e+02  -8.893341310257e+01 
5 1 -2.915008004948e-01  -4.190556109243e+02   1.350320299670e+02 
6 1  7.685523744183e+02  -3.701173374594e+02  -4.684643556963e+01 
7 1  2.630948496727e+02  -6.273991376257e+01   2.872238553726e+02 
8 1  3.535328832646e+02  -6.449032369643e-01  -4.646883474401e+02 
8
Step 51000
1 1  1.591095908124e+02   1.844419254698e+01  -1.723424605115e+02 
2 1 -2.440013836190e+02   2.495600521752e+02   1.726712994669e+00 
3 1  1.641137034998e+02  -1.832559406000e+02  -7.517178528388e+01 
4 1  4.683022165195e+01   5.959191316236e+01  -1.836410036123e+02 
5 1  2.306351069002e+02  -1.780565124419e+01   2.320587683353e+02 
6 1  3.469360244928e+02  -1.521004755321e+02   1.473264746381e+02 
7 1 -5.849255534217e+01  -2.742064457326e+02   6.730926281165e+00 
8 1  1.791457459502e+02  -1.221989233624e+02  -6.424265840259e+02 
8
Step 52000
1 1 -2.701291606338e+02  -3.206206764154e+02  -2.573190578452e+02 
2 1 -4.619280239045e+02  -4.406729742718e+01  -2.037834156967e+02 
3 1  6.709109281600e+01   4.706965294115e+01  -3.058007138587e+02 
4 1 -2.246630256905e+02  -1.912329108144e+02  -3.387091758494e+02 
5 1  5.148811106020e+02  -2.022693640809e+02  -3.138959140264e+01 
6 1 -1.065876622582e+02  -7.468926441320e+01  -1.694217927600e+01 
7 1  1.151603910852e+01  -9.597337599390e+01  -1.446302081716e+02 
8 1  2.937760778274e+02   3.065418180870e+01  -3.686020023125e+02 
8
Step 53000
1 1  1.873246100954e+02  -1.910396798649e+02  -4.684497326459e+02 
2 1 -1.561699691486e+02  -4.017628839466e+02  -1.688661723230e+02 
3 1  2.899323699030e+02   3.785025932523e+02  -2.241941472489e+02 
4 1 -1.252876338407e+02   5.107715005266e+01   2.235005981028e+02 
5 1 -1.626962596512e+02  -2.152473017317e+01  -8.719705230044e+01 
6 1 -5.449935921096e+01  -6.295567665998e+01   2.667222170852e+01 
7 1 -1.835160532979e+01   1.624761710603e+02  -4.625743117500e+02 
8 1  8.838899137445e+01  -1.338917327661e+02  -8.171036514121e+02 
8
Step 54000
1 1  8.938275992939e+01   1.040215044807e+02   1.749587583319e+02 
2 1 -4.158287831222e+02  -4.801874415530e+02  -1.203977782553e+01 
3 1  3.025367983705e+01  -2.284077214773e+02   4.264166996905e+01 
4 1  4.111942062775e+01  -1.861447757718e+02   2.075573920165e+02 
5 1 -4.532592099686e+02   6.659468402991e+01  -1.221745550512e+02 