8
Step 0
1 1  3.925936639999e+02  -1.543008928071e+02  -1.440228048609e+02 
2 1 -3.379341087660e+02  -3.925505874471e+02   3.683521818855e+02 
3 1 -3.424884316572e+02  -2.182720383758e+02   4.091092859017e+02 
4 1 -2.495589300526e+02  -4.683427121431e+01   3.142915232886e+02 
5 1  3.184003193496e+02  -2.363421945060e+02   2.760046204839e+02 
6 1  6.480739281491e+02   6.885028007930e+02  -2.003080180061e+02 
7 1  1.705097250055e+01  -3.196006587446e+02  -1.875622399230e+01 
8 1 -1.126140154026e+02  -3.910938041795e+02   4.674400516380e+02 
8
Step 1000
1 1  6.490311943048e+02  -3.461981239443e+02   1.275341071476e+02 
2 1  4.056889195027e+02  -7.819826758346e+02  -6.172289942913e+02 
3 1 -5.124585648575e+02   2.247407384164e+02   3.308514432383e+02 
4 1 -1.526940853837e+02   1.288120217125e+02  -4.671832874043e+02 
5 1  3.069614459760e+01  -7.232178254881e+01   5.175972975222e+02 
6 1  5.823105077014e+02   4.237498483368e+01   4.075485556006e+02 
7 1 -3.253184894279e+02  -2.286506227707e+02   9.032760000273e+01 
8 1 -9.184748450956e+01  -6.393209319844e+02  -4.813700327248e+02 
8
Step 2000
1 1  4.269062893492e+02  -3.670438323189e+02   2.691934934501e+02 
2 1  4.019205225188e+02  -2.433736550913e+02  -9.656024117875e+02 
3 1 -2.912642931025e+02   4.285681318034e+02  -3.001915485119e+02 
4 1 -3.766005841128e+01  -4.918872537492e+01  -3.514441672437e+02 
5 1 -2.783452239596e+02   2.622158688177e+01   1.654650379432e+01 
6 1 -2.150325250861e+02  -2.944603609814e+02   4.753769465636e+02 
7 1 -2.934061149169e+02  -1.420282710319e+02   2.757074131153e+02 
8 1 -1.040429331577e+02  -4.097649897757e+02  -7.692600291468e+02 
8
Step 3000
1 1 -1.544746568355e+02  -1.831475970817e+02   1.496254161528e+02 
2 1 -2.198265726911e+02   5.565002396047e+02  -2.170192122555e+02 
3 1  1.411658735741e+02   3.029260954190e+02  -6.314393287805e+02 
4 1 -3.399944487167e+01  -1.986885880740e+02   3.213165954057e+02 
5 1 -3.066047860325e+02   1.857726622643e+00  -4.305912319435e+02 
6 1 -8.774531076853e+02  -1.054486115198e+02   7.471133522413e+01 
7 1  3.701416514799e+01  -1.583445218213e+02   4.323522615225e+02 
8 1 -7.900174376885e+01  -6.103650374109e+01  -7.581581910286e+01 
8
Step 4000
1 1 -5.064360609935e+02   1.005176353636e+02  -8.506582319354e+01 
2 1 -4.852594092543e+02   6.556762044061e+02   6.647010523153e+02 
3 1  3.456057339778e+02   5.478237166231e+01  -2.756069827572e+02 
4 1 -2.436992731646e+01  -5.129100618225e+01   4.776171076810e+02 
5 1 -8.578075152396e+01  -6.839089968855e+01  -2.249332007843e+02 
6 1 -7.007083945051e+02   1.756692510702e+02  -1.393458414762e+02 
7 1  2.482152688203e+02  -1.107781098702e+02   3.366441926724e+02 
8 1 -1.087670000710e+01   1.654089911023e+02   6.603062568672e+02 
8
Step 5000
1 1 -3.296257932446e+02   2.780032434886e+02  -2.136039929571e+02 
2 1 -1.790707573362e+01   7.188651757113e+00   7.184211358558e+02 
3 1  1.561859077810e+02  -4.441253833368e+01   3.088857326305e+02 
4 1  5.171877764438e+01   1.874878717905e+02  -1.467095453257e+02 
5 1  1.005386768552e+02  -3.288918815284e+01   2.563202422555e+02 
6 1  8.574657862147e+01   1.062565306835e+02   5.053950420406e+01 
7 1  1.344535801546e+02   1.635014027895e+02  -2.006312278439e+01 
8 1  6.866970773414e+01   2.921650248327e+02   5.854627046351e+02 
8
Step 6000
1 1  5.024023881538e+01   1.931013805115e+02  -1.417384039473e+02 
2 1  5.556778453253e+02  -5.777057795207e+02   6.327501195203e+01 
3 1 -1.522209088708e+02   6.457331466267e+01   4.863965962934e+02 
4 1  7.664870951430e+01   1.893187344722e+02  -7.562128477589e+02 
5 1  6.811664236366e+01   1.609713394983e+02   2.900490498991e+02 
6 1  6.699273789370e+02  -3.124420017913e+02   2.299172577399e+02 
7 1 -1.241898722921e+02   5.141893835152e+02  -3.392052953920e+02 
8 1  1.381234808292e+02   3.235687385729e+02  -1.278178591239e+02 
8
Step 7000
1 1  1.192677372956e+02  -9.132934430396e+01   3.234512885269e+01 
2 1  4.753032704053e+02  -4.348628119645e+02  -4.138080214026e+02 
3 1 -1.841994648801e+02   1.348645852228e+02   1.680847121276e+02 
4 1 -4.152586111435e+01  -2.988715913858e+01  -5.780591017150e+02 
5 1 -4.126709193411e+01   3.294517724994e+02  -1.887007328078e+02 
6 1  5.396249538234e+02  -6.637586267442e+02   4.010542960269e+01 
7 1 -1.997057008045e+02   5.465019562904e+02  -3.194881811417e+02 
8 1  1.698847631393e+02   1.638611196565e+02  -6.070953578236e+02 
8
Step 8000
1 1 -1.715609398072e+02  -2.840741318142e+02   1.098461674003e+02 
2 1 -1.413279178903e+02   1.693819908251e+02  -1.905507873628e+02 
3 1  1.099984772806e+02  -8.728901975193e+01  -1.544869642543e+02 
4 1 -1.761396835999e+02  -1.307003348144e+02   9.013191108575e+01 
5 1  3.790509132016e+01   2.161427350179e+02  -4.802229269620e+02 
6 1 -5.840542977546e+00  -5.564680754249e+02  -2.617115043872e+02 
7 1  5.069107485018e+00   1.282294246018e+02  -3.883851466145e+01 
8 1  1.180894515005e+02  -1.132677105296e+02  -3.530172312187e+02 
8
Step 9000
1 1 -3.666934645778e+02  -1.696308060081e+02   5.881015479013e+00 
2 1 -5.217825879576e+02   4.854341460114e+02   2.924880572727e+02 
3 1  3.817177720492e+02  -4.656799592935e+02  -1.081267388919e+02 
4 1 -1.371733398729e+02   3.507039575615e+01   3.616540970927e+02 
5 1  2.802403266994e+02  -1.560840237088e+02  -1.281672900662e+02 
6 1 -3.428653127389e+02  -3.550159093457e+01  -2.197571367664e+02 
7 1  2.472982353936e+02  -3.722676401919e+02   1.397606915487e+02 
8 1 -3.394995024005e+01  -2.306282586108e+02   2.054348369163e+02 
8
Step 10000
1 1 -1.283233832572e+02   1.615213280497e+02  -1.743151835919e+02 
2 1 -2.806416771025e+02   2.420233604264e+02   3.556446788997e+02 
3 1  3.067854274261e+02  -5.377745242251e+02   1.479674042188e+02 
4 1  6.573739763821e+01   1.995180816069e+02   6.653815423362e-01 
5 1  3.421634399101e+02  -4.366504517621e+02   4.577828743633e+02 
6 1 -2.681335623635e+02   4.996127967355e+02   1.125200220117e+02 
7 1  2.334730287789e+02  -4.761802968942e+02   3.329709730461e+01 
8 1 -2.065076493247e+02  -3.670688926796e+01   3.915033909731e+02 
8
Step 11000
1 1  3.237517301467e+02   3.671690611118e+02  -2.347248017921e+02 
2 1  1.609233454093e+02  -1.402190811728e+02  -3.056739335258e+01 
3 1 -4.160987362166e+01  -7.492799194111e+01   2.196301095645e+02 
4 1  2.103342039649e+02   4.526192192289e+01  -3.202496092640e+02 
5 1  1.125913372670e+01  -3.005956580939e+02   5.252440737536e+02 
6 1 -5.801094139344e+01   6.229832296886e+02   2.139590818254e+02 
7 1 -4.516323177433e+01  -1.309610478387e+02  -1.504977583069e+02 
8 1 -2.402730913523e+02   2.286225161296e+02   1.012801970632e+02 
8
Step 12000
1 1  5.092466082775e+02   2.129661896657e+02  -8.271023845345e+01 
2 1  2.265067689670e+02  -2.100960225370e+02  -2.909553439105e+02 
3 1 -2.988895970143e+02   5.274652035700e+02   8.786611517222e-01 
4 1  1.496602761317e+02  -3.115155257175e+02  -1.213925648098e+01 
5 1 -4.407220082122e+02   1.327404538360e+02  -5.763888435757e+00 
6 1  2.279199048371e+01   2.903092165664e+02  -1.261538352324e+02 
7 1 -2.889611008869e+02   2.145367598079e+02  -1.073194695779e+02 
8 1 -6.955193112141e+01   1.890504929567e+02  -1.732835431523e+02 
8
Step 13000
1 1  2.745616979598e+02  -1.678396174636e+02   1.882784425189e+02 
2 1 -4.614630314565e+01  -4.762815615307e+01  -9.581002329402e+01 
3 1 -2.545058761405e+02   6.391184350303e+02  -2.627157192093e+02 
4 1 -1.178745821854e+01  -4.062199706782e+02   5.924453196499e+02 
5 1 -5.266526269720e+02   4.132765837952e+02  -4.568413130589e+02 
6 1  4.113816353602e+01  -1.399471196600e+02  -4.424949445461e+02 
7 1 -2.236218114726e+02   1.622404850049e+02   1.434086487429e+02 
8 1  1.713095641129e+02  -1.630646439274e+02  -7.799557562791e+01 
8
Step 14000
1 1 -8.669535241435e+01  -3.831985752604e+02   3.731575669193e+02 
2 1 -1.620771499867e+02  -2.373309656971e+00   2.008846188218e+02 
3 1 -5.932507614766e+01   1.343737641848e+02  -3.249150103386e+02 
4 1 -7.284228322081e+01  -6.011970402254e+00   6.938597503467e+02 
5 1 -1.228668820559e+02   2.687659030164e+02  -2.836606718996e+02 
6 1  1.469636952990e+02  -2.445701906363e+02  -2.090269108040e+02 
7 1  9.015280948670e+01  -1.720845065504e+02   2.683123776463e+02 
8 1  2.481139790333e+02  -4.031766177532e+02   1.669941181247e+02 
8
Step 15000
1 1 -2.408126437944e+02  -1.973033204114e+02   3.403032099456e+02 
2 1  6.933230123747e+01  -1.160044636778e+02   8.458170755807e+01 
3 1  1.185807963329e+01  -3.949329507459e+02  -1.982664404940e+02 
4 1  2.429363678728e+00   5.241125665094e+02   1.408180552003e+02 
5 1  3.374525289288e+02  -8.030649538890e+01   2.166995709521e+02 
6 1  2.509378025632e+02   3.213932059654e+01   3.709481903931e+02 
7 1  3.057304617868e+02  -3.301432625465e+02   7.072415397204e+01 
8 1  8.538346494571e+01  -2.153058430976e+02   1.389526282981e+02 
8
Step 16000
1 1 -1.797873256838e+02   2.086934015309e+02   1.268791043780e+02 
2 1  2.815355194953e+02  -9.705543550370e+01  -3.766554802744e+02 
3 1 -6.685946920934e+01  -3.576699320365e+02  -1.789220416852e+01 
4 1  7.286735957225e+01   6.049673186347e+02  -4.053135386362e+02 
5 1  3.888750122939e+02  -2.408814127805e+02   3.552828693402e+02 
6 1  1.409478976679e+02   3.160248630145e+02   5.815322967739e+02 
7 1  1.795067594321e+02  -9.689042227309e+01  -2.281297701410e+02 
8 1 -1.384120148490e+02   1.850822065224e+02  -1.767549263902e+02 
8
Step 17000
1 1 -8.231875681028e+01   4.125297890454e+02  -1.181883681349e+02 
2 1  1.183711886273e+02   1.556765179253e+02  -5.882886900756e+02 
3 1 -8.192416458215e+01   1.255800568504e+02   1.575057365332e+02 
4 1  3.628929716936e+01   9.396959677133e+01  -3.837915033764e+02 
5 1  7.183306894473e+01  -1.292385178657e+02  -3.069199404309e+01 
6 1 -1.522293070593e+02   2.093873809058e+02   1.318683249560e+02 
7 1 -1.606767648145e+02   2.647081564759e+02  -2.522788658450e+02 
8 1 -1.802411482245e+02   3.231848637671e+02  -3.762325690751e+02 
8
Step 18000
1 1 -1.630977613048e+01   1.909638797660e+02  -2.640016842006e+02 
2 1 -2.296926834871e+02   3.198301477625e+02  -1.992271198206e+02 
3 1  7.645314149576e+01   3.852095066329e+02   3.067700892246e+02 
4 1 -5.529143890661e+01  -5.195130954706e+02  -4.471660530615e+01 
5 1 -1.542975284078e+02  -8.155959764642e+00  -4.020472244989e+02 
6 1 -3.204169223914e+02  -2.410842047797e+02  -4.196196147759e+02 
7 1 -3.484174815563e+02   3.700853821313e+02   4.574137842230e+01 
8 1 -3.355351262463e+00   7.911518658438e+01  -1.886000147461e+02 
8
Step 19000
1 1  7.593684142481e+01  -2.468641144913e+02  -2.912451602285e+02 
2 1 -2.925709926847e+02   9.291349670182e+01   4.476846993871e+02 
3 1  2.304249398037e+02   6.784920145266e+01   3.231905256129e+02 
4 1 -1.131497971765e+02  -6.480595411604e+02   5.898381379684e+00 
5 1 -2.611162637285e+01  -5.989868432467e+01  -2.761424107191e+02 
6 1 -1.790490137565e+02  -5.671075167725e+02  -3.863691541334e+02 
7 1 -1.807904341003e+02   1.661933579327e+02   3.114918909914e+02 
8 1  1.838974962262e+02  -1.852335890498e+02   1.808683472601e+02 
8
Step 20000
1 1  1.509312669017e+02  -4.644010364442e+02  -2.563743524051e+02 
2 1  1.751463503181e+01  -3.125109293638e+02   7.084237734672e+02 
3 1  1.540000844986e+02  -4.097936348866e+02   1.039430425169e+02 
4 1 -1.368329116390e+02  -2.193604475153e+02  -2.948300262844e+02 
5 1  1.937576883047e+02  -1.273008357006e+02   1.517822076582e+02 
6 1  6.652200301381e+01  -4.020363124371e+02   1.530295550511e+02 
7 1  1.641555868457e+02  -7.841704748930e+01   2.191111387892e+02 
8 1  1.611687486779e+02  -1.402225414222e+02   3.276078487194e+02 
8
Step 21000
1 1  4.958992550777e+01  -2.497051487002e+02  -1.921337869934e+02 
2 1  2.808024564352e+02  -3.849576923971e+02   3.862824192014e+02 
3 1 -7.936096062992e+01  -4.140660777286e+02  -2.224925334235e+02 
4 1 -1.522616652936e+02   2.811425493058e+02  -4.078460742871e+02 
5 1  9.457048824789e+01   1.789074774530e+01   3.302048470029e+02 
6 1  9.626590422903e+01   6.200458480711e+01   4.684198641177e+02 
7 1  3.291555470415e+02  -1.520610923997e+02  -1.161748777014e+02 
8 1 -5.915204457774e+01   7.175033663867e+01   1.574930557070e+02 
8
Step 22000
1 1 -2.243321710985e+02   1.767325430259e+02  -5.824486330448e+01 
2 1  1.634899966132e+02  -3.239090238357e+00  -1.112846244925e+02 
3 1 -1.588591825116e+02   6.454406293991e+01  -3.408206018032e+02 
4 1 -1.006518335378e+02   3.855581066471e+02  -3.359398231365e+01 
5 1 -2.949060644431e+02   2.828124271095e+02   1.210377810714e+02 
6 1 -6.680283063113e+01   2.947784863602e+02   1.656259845667e+02 
7 1  1.731701822692e+02  -1.049084871986e+02  -2.884248741131e+02 
8 1 -2.597564813480e+02   9.935177504016e+01  -4.896833640994e+01 
8
Step 23000
1 1 -3.805194289986e+02   4.102252755224e+02   1.808214578238e+02 
2 1 -1.400695063192e+02   3.794160046991e+02  -3.244671648051e+02 
3 1  4.340406361924e+01   4.174824505666e+02  -1.079303036896e+02 
4 1  8.581280579746e+01   1.240578639708e+02   4.177537785889e+02 
5 1 -5.051270787286e+02   3.339234432025e+02  -9.116475522805e+01 
6 1 -9.047499967654e+01   8.265808293820e+01  -3.255281922543e+02 
7 1 -1.064596501608e+02  -5.622511936338e+01  -1.114323952434e+02 
8 1 -2.583315508282e+02  -6.055523945554e+01  -4.905334093466e+01 
8
Step 24000
1 1 -1.436232723145e+02   2.514637343703e+02   4.312664622216e+02 
2 1 -2.105320633110e+02   3.124328635481e+02  -2.115413147334e+02 
3 1  2.641038512557e+02   2.142167779358e+02   2.232366866361e+02 
4 1  3.036410668620e+02  -1.008873658044e+02   3.947270588216e+02 
5 1 -2.024888006151e+02   4.836890640819e+01  -1.969809515197e+01 
6 1  1.765421679508e+02  -1.996094029805e+02  -3.727171673992e+02 
7 1 -2.177569486164e+02   7.955424041548e+00   1.667803676617e+02 
8 1 -6.291383624912e+01  -5.279858516501e+01   7.379589983935e+01 
8
Step 25000
1 1  3.386007390301e+02  -1.188425484416e+02   4.859828568991e+02 
2 1  7.404468991475e+00  -6.718593139451e+01  -4.643304353038e+01 
3 1  1.629264834036e+02  -2.460663320360e+02   2.494190382702e+02 
4 1  3.088630734221e+02  -1.030287425610e+01  -1.274686268443e+00 
5 1  3.588779689427e+02  -2.766466382288e+02   1.185966314364e+02 
6 1  4.298043857814e+02  -4.270134674787e+01   2.173911906094e+00 
7 1 -8.396030214595e+01   1.181493555030e+02   1.808701038256e+02 
8 1  1.673041281904e+02   2.644619934777e+02   8.059936909375e+01 
8
Step 26000
1 1  5.845053248575e+02  -3.459959927095e+02   2.276269781466e+02 
2 1  1.509543945094e+02  -2.387905650740e+02   3.284804761812e+00 
3 1 -2.069013110099e+02  -3.418707604439e+02  -8.370315950547e+01 
4 1  2.364111577115e+01   2.378543774479e+02  -1.621515177844e+02 
5 1  6.113891098723e+02  -2.945736146033e+02  -9.814412348646e+00 
6 1  2.724469446010e+02   5.027257224735e+02   1.968267006886e+02 
7 1  1.040971693157e+02   1.354876551610e+02  -8.288783904512e+01 
8 1  2.881752445934e+02   4.832374992097e+02  -7.630697307725e+01 
8
Step 27000
1 1  3.193223805987e+02  -2.349044942610e+02  -1.895008244891e+02 
2 1 -7.450456556888e+00  -1.633110663838e+01  -2.635326449585e+00 
3 1 -4.189439782058e+02   7.078865755856e+01  -3.759967298176e+02 
4 1 -2.595433895905e+02   2.638863111021e+02   1.338224596797e+02 
5 1  3.099566592330e+02  -4.068009289959e+01  -2.747513609968e+02 
6 1 -2.245082304312e+02   7.859406019608e+02  -7.813251078197e+01 
7 1  1.280487205850e+02  -1.007178749660e+02  -2.751558448196e+02 
8 1  2.559210828464e+02   1.226027870924e+02  -2.177186958599e+02 
8
Step 28000
1 1 -1.645944176886e+02   9.901632334767e+01  -4.272277883092e+02 
2 1 -2.105545171874e+02   1.923015410442e+02  -2.987037386746e+00 
3 1 -2.080999653733e+02   4.756397787176e+02  -2.453122916736e+02 
4 1 -1.604548244594e+02  -7.489009000886e+01   3.826506167238e+02 
5 1 -1.962800732671e+02   1.353320709358e+02  -2.256955487084e+02 
6 1 -5.173985596780e+02   3.343746621754e+02  -3.508581852100e+02 
7 1 -1.972872881851e+01  -4.174681332710e+02  -1.337049512409e+02 
8 1  1.065534780716e+02  -6.029596426151e+02  -2.099387106147e+02 
8
Step 29000
1 1 -3.580106560718e+02   3.745283321588e+02  -3.156684334030e+02 
2 1 -1.058395839983e+02  -1.516936166534e+01  -4.725410808129e+01 
3 1  1.687632537497e+02   3.728207530487e+02   1.728477365383e+02 
4 1  2.463157214624e+02  -4.972211413129e+02   1.204233866633e+02 
5 1 -3.999100918861e+02   6.103984635526e+01   1.860505240676e+02 
6 1 -2.689580720390e+02  -4.941448206889e+02  -6.939559815951e+01 
7 1 -1.570503698319e+02  -3.689606611246e+02   1.800249258240e+02 
8 1 -9.690028746527e+01  -8.732484471263e+02  -1.169354140206e+02 
8
Step 30000
1 1 -1.433777583536e+02   3.767825440998e+02  -4.448198476661e+01 
2 1  1.990038568015e+02  -4.042518239941e+02  -1.301971336064e+02 
3 1  2.537436419450e+02  -9.857311792231e+01   3.706379845106e+02 
4 1  4.028280077694e+02  -5.642438973534e+02  -3.236347011204e+02 
5 1 -2.055055099422e+02  -5.173695284746e+01   4.046043868291e+02 
6 1  1.805262188681e+02  -8.558390255584e+02   5.241095423224e+02 
7 1 -1.304036859138e+02   1.724162172789e+02   2.878181625050e+02 
8 1 -2.548995129826e+02  -2.723764606435e+02  -3.895758184188e+01 
8
Step 31000
1 1  1.065755236253e+02   9.781810008678e+01   6.749801422103e+01 
2 1  2.686359376765e+02  -3.812894588915e+02  -1.072265364711e+02 
3 1  1.326522035763e+00  -3.907949579696e+02   1.296436964640e+02 
4 1 -3.180157990895e+01  -1.470279051894e+02  -2.907105756901e+02 
5 1  3.308754387570e+01   2.451660796598e+01   3.614979751006e+01 
6 1  2.394220576698e+02  -4.418895450798e+02   6.334149980002e+02 
7 1  2.701391069526e+01   6.634265790155e+02   8.089012439070e+01 
8 1 -2.508483086293e+02   5.486791690353e+02   5.885804890782e+01 
8
Step 32000
1 1  6.364397795311e+01  -2.770199494283e+02  -1.790724045515e+01 
2 1  9.052113949347e+00   1.323493113232e+02   7.812812624758e+01 
3 1 -1.728489647985e+02  -2.909867840143e+02  -1.766966524931e+02 
4 1 -6.309099579229e+02   4.063067200770e+02   1.357221450658e+02 
5 1  2.839417083829e+01   1.528893330580e+02  -4.755607432464e+02 
6 1 -1.113629505348e+02   1.408635704501e+02   4.716558281472e+01 
7 1  1.579896979010e+02   4.931884193480e+02  -1.534110026536e+02 
8 1 -7.014770824047e+01   6.492829792873e+02   2.356043057824e+02 
8
Step 33000
1 1 -1.636672755722e+02  -4.960954840932e+02  -4.305294269199e+01 
2 1 -1.882791727274e+02   5.430402597252e+02   2.283096251813e+02 
3 1 -7.400378652885e+00  -7.924967935747e+01  -1.125491936038e+02 
4 1 -6.760898940451e+02   6.170856802152e+02   1.994700728968e+02 
5 1 -9.092957099322e+01   6.158738127977e+01  -3.979512856537e+02 
6 1 -3.027961757947e+02   2.216865782654e+02  -5.287579752197e+02 
7 1  1.556049297630e+02  -1.830477724984e+02  -1.337501436163e+02 
8 1  1.392257815388e+02   2.426733547108e+01   3.743794195046e+02 
8
Step 34000
1 1 -2.755780026915e+02  -3.850463448257e+02   1.371985692448e+02 
2 1 -4.441294829398e+01   3.677795341949e+02   1.276652928511e+02 
3 1  2.401250158467e+02   2.443922526625e+00   2.209578726374e+02 
4 1 -6.621489920816e+01   3.226183297533e+02  -3.469733614636e+02 
5 1 -3.518680502344e+01  -1.792826522636e+02   2.503029629929e+02 
6 1  9.342272683102e+00  -9.571110469549e+01  -4.204478444576e+02 
7 1  4.058297363386e+01  -5.619232048146e+02   6.833026099097e+01 
8 1  1.785281695387e+02  -4.343989631271e+02   2.684273374068e+02 
8
Step 35000
1 1 -1.957324764408e+02  -7.147785326096e-01   3.122666343865e+02 
2 1  1.871227938352e+02  -1.246045468760e+02  -1.115032771129e+02 
3 1  1.998096101674e+02   5.870915884318e+01   3.300376808162e+02 
4 1  5.287067649652e+02  -1.799383080869e+02  -7.626131579092e+02 
5 1  2.093830040913e+02  -2.162899865054e+02   6.670121338859e+02 
6 1  4.517141004990e+02  -1.907874901179e+02   1.172699400177e+02 
7 1 -7.957659517161e+01  -2.165093106164e+02   1.661953908912e+02 
8 1  1.148209443494e+01  -1.492874473820e+02  -6.607445688009e+01 
8
Step 36000
1 1 -4.798422811097e+01   3.817258460801e+02   1.885125968817e+02 
2 1  1.199391710261e+02  -3.274230078822e+02  -1.541197533133e+02 
3 1 -6.899947467467e+01   2.195877147519e+02  -8.492796182866e+00 
4 1  5.192687492317e+02  -4.567934125247e+02  -3.407001054725e+02 
5 1  3.576906930004e+02   5.173195770662e+01   3.277632894008e+02 
6 1  4.420009257968e+02   1.581034517718e+02   3.306679779102e+02 
7 1 -1.153758405316e+02   3.631268473406e+02   3.756166513648e+01 
8 1 -1.797251749261e+02   4.416870779201e+02  -3.490108297337e+02 
8
Step 37000
1 1  1.084766711975e+02   4.553061795418e+02  -1.906876469329e+02 
2 1 -1.863177265173e+02  -8.219363710944e+01   1.142085763083e+02 
3 1 -1.778395954396e+02   3.069557991180e+02  -4.571479426466e+02 
4 1  6.999461835071e+01  -3.231780532143e+02   5.399068585461e+02 
5 1  1.834998289979e+02   2.752641307635e+02  -3.496941895753e+02 
6 1 -5.187365253470e+01   4.963162053703e+02  -9.587857724964e+00 
7 1 -5.649826947216e+01   4.108596481882e+02  -1.590012447107e+02 
8 1 -1.729448756418e+02   5.497241013257e+02  -3.312051010655e+02 
8
Step 38000
1 1  3.097071791883e+02   1.511533018076e+02  -4.441764724747e+02 
2 1 -3.078446771218e+02   1.912479472842e+02   3.941247509909e+02 
3 1  1.992098556667e+01   7.116322479604e+01  -5.219374377910e+02 
4 1 -1.926949822824e+02   3.036173152324e+01   8.536802778325e+02 
5 1 -2.141973553001e+02   1.196270813349e+02  -5.767330959638e+02 
6 1 -4.837335399028e+02   3.384283786139e+02  -3.722195893465e+02 
7 1  2.580206516720e+01  -1.396448513852e+02  -2.059612998042e+02 
8 1  6.160166842218e+01   4.802022375127e+01  -6.641871416911e+01 
8
Step 39000
1 1  4.674911750818e+02  -2.590844866406e+02  -2.836053794309e+02 
2 1 -6.190662330965e+01   1.035907045032e+02   3.093205010705e+02 
3 1  2.028033431702e+02  -3.453553301798e+02  -1.158405308322e+02 
4 1  8.227212711617e+00   2.567794851417e+02   2.774088363802e+02 
5 1 -4.978752647518e+02  -2.400591921619e+02  -1.791329522827e+02 
6 1 -3.925937962529e+02  -1.685759682316e+02  -2.364776063008e+02 
7 1  4.260015598903e+01  -5.829056749829e+02  -6.906564353186e+01 
8 1  3.113393129753e+02  -4.523823865869e+02   1.641911754344e+02 
8
Step 40000
1 1  3.552033084606e+02  -3.844422516904e+02   1.331768583548e+02 
2 1  2.190070721043e+02  -1.994261960723e+02  -1.222710976050e+02 
3 1  3.398013417072e+01  -4.655921366474e+02   3.560156204236e+02 
4 1  2.886516000884e+02   1.989632491814e+02  -3.574455783710e+02 
5 1 -4.121517036328e+02  -3.094057958827e+02   2.593827007488e+02 
6 1  7.097458467576e+01  -4.197514779731e+02   2.103815297816e+02 
7 1 -2.225091047242e+01  -3.578948120127e+02   9.803630976272e+01 
8 1  3.187384064228e+02  -4.445592337461e+02   1.700994208053e+02 
8
Step 41000
1 1 -7.704902288682e+01  -9.530432131533e+01   3.914498123865e+02 
2 1  1.514677484648e+02  -2.845922605235e+02  -4.988073101210e+02 
3 1 -3.295091749148e+02  -7.974568836674e+01   4.623442337270e+02 
4 1  1.577568526830e+02   9.940249736925e+00  -1.966008170615e+02 
5 1  1.062605767299e+00   5.516442471375e+01   2.308853931430e+02 
6 1  3.847112849272e+02  -1.264120067551e+02   3.756326082770e+02 
7 1 -9.161934777758e+01   2.471163186751e+02   1.433426431174e+02 
8 1  3.331420891550e+01  -1.114580602315e+02   2.028298447246e+01 
8
Step 42000
1 1 -4.869656219211e+02   3.225129725197e+02   3.017158670189e+02 
2 1 -1.546855882290e+02  -2.738642938175e+01  -4.865518604493e+02 
3 1 -3.983213869744e+02   4.162308004636e+02   1.727786487957e+02 
4 1 -3.194890454098e+02  -5.796614095060e+01   4.668212938053e+02 
5 1  4.433719823418e+02   4.064054511957e+02  -6.820223461300e+01 
6 1  2.715244638592e+02   3.289498539498e+02   7.532957431598e+01 
7 1 -7.245135555207e+01   4.881651114168e+02   5.822774798531e+01 
8 1 -3.215246733816e+02   5.692403178122e+01  -9.831940916958e+01 
8
Step 43000
1 1 -4.442262214603e+02   4.216023637542e+02   7.951681037628e+01 
2 1 -2.315463091319e+02   2.430191931345e+02  -1.557578181135e+02 
3 1 -1.009744698702e+01   4.612692401915e+02  -1.772157529899e+02 
4 1 -5.828010469752e+02   4.649784846873e+01   5.691237417019e+02 
5 1  5.819556486667e+02   2.691824048226e+02  -1.091605007062e+02 
6 1 -5.974631637216e+01   3.786494363703e+02  -2.466879076456e+02 
7 1  4.435837634328e+01   1.244763798222e+02  -4.591027157810e+01 
8 1 -4.272464247524e+02  -3.349845651996e+01  -9.654096481302e+01 
8
Step 44000
1 1  5.650162036965e-01   6.409584945154e+01   2.404150090308e+01 
2 1  8.573506852387e+01   2.038320148901e+02   1.403402936022e+02 
3 1  3.779555908033e+02   5.465526853705e+01  -2.589791677159e+02 
4 1 -2.881655144199e+02   1.218159450748e+02  -2.269121157912e+02 
5 1  3.208541107534e+02  -1.830962006839e+02   1.715724203276e+02 
6 1 -2.329522254897e+02  -1.947396086589e+01  -1.518419687671e+02 
7 1  1.678868912107e+02  -2.749600156774e+02  -5.840407753723e+01 
8 1 -1.709532492267e+02  -4.783031754753e+01  -2.422781919780e+01 
8
Step 45000
1 1  3.157775968520e+02  -4.083328326015e+02   8.363007084058e+01 
2 1  4.013051695818e+02  -3.020594355662e+01   2.106499813787e+02 
3 1  2.878998834869e+02  -2.568457335553e+02  -7.342936777311e+01 
4 1  2.591110370683e+02  -1.460971814506e+01  -1.007405535259e+03 
5 1 -1.289408737349e+02  -3.432031928808e+02   2.949416477866e+02 
6 1 -1.556980358102e+02  -3.827226763987e+02   1.865226101294e+02 
7 1  2.047930596655e+02  -1.404775161438e+02   2.401397771208e+01 
8 1  2.364757730124e+02   1.701766527867e+02   4.891888511281e+01 
8
Step 46000
1 1  1.316769186951e+02  -5.107364341263e+02  -4.756260948075e+01 
2 1  2.815715408912e+02  -1.116844465645e+02   1.570429587918e+02 
3 1 -1.358745034168e+02  -1.298346944729e+02   1.364170286724e+02 
4 1  4.934636936870e+02  -2.683339488069e+02  -7.960964787782e+02 
5 1 -4.403422289172e+02  -2.173044804004e+00  -2.758279779901e+01 
6 1 -7.739141890624e+00  -3.513932028941e+02   2.742530211647e+02 
7 1  1.246601892051e+02   3.312234929715e+02   1.051345371095e+02 
8 1  4.417924262607e+02   3.159379695601e+02   1.026850172929e+02 
8
Step 47000
1 1 -2.768249551131e+02  -1.225223643682e+02  -4.264248519190e+02 
2 1 -1.413599429584e+02   6.083334749651e+01   1.446478736769e+02 
3 1 -2.795388824227e+02   1.295582291861e+02   1.523019551745e+02 
4 1  2.317326070564e+02  -3.397456833236e+02   1.182116036756e+02 
5 1 -4.144271588332e+02   3.209275419464e+02  -4.128596663273e+02 
6 1  4.540934002423e+01  -9.651480659225e+01  -5.659806925306e-01 
7 1 -3.151517028463e+01   4.388537122040e+02   7.902916035109e+01 
8 1  2.554422205127e+02   1.071144654853e+02   1.208561024349e+02 
8
Step 48000
1 1 -3.447090020543e+02   3.687351142168e+02  -6.766017626790e+02 
2 1 -3.488168327153e+02   2.170730110585e+02   1.692688794306e+02 
3 1  8.579363325293e+01   3.773607137618e+01  -8.656842839433e+00 
4 1 -1.645312138954e+02  -9.176036188351e+01   6.054417837193e+02 
5 1 -1.470519138268e+02   9.838299493798e+01  -3.288842019410e+02 
6 1  2.592736416636e+01   1.408147700123e+01  -2.395224967871e+02 
7 1 -2.017225472629e+02  -4.915543279350e+01  -5.521624443053e+01 
8 1 -1.545381921985e+02  -2.193829155280e+02   7.034110430689e+01 
8
Step 49000
1 1  4.248398633349e+01   4.830449250686e+02  -4.083596447692e+02 
2 1 -1.337788561400e+02   1.001042081063e+02   1.206020824487e+02 
3 1  4.726848981244e+02  -3.432764380138e+02  -1.551686074115e+02 
4 1 -2.882398144650e+02   2.697607370415e+02   2.367181321021e+02 
5 1  1.100716788768e+02  -4.397504535950e+02   1.595834790916e+02 
6 1  2.097007893433e+01  -4.305216295856e+01  -1.410917976435e+02 
7 1 -3.081820144529e+02  -5.859676004310e+02  -1.716919571638e+02 
8 1 -4.243184331113e+02  -2.064836095133e+02  -4.329409221252e+01 
8
Step 50000
1 1  4.074716457832e+02   1.267964587665e+02   2.511775285755e+02 
2 1  1.579635786538e+02  -1.999696210152e+02  -1.190492760548e+01 
3 1  3.082464402872e+02  -4.634285875623e+02  -1.266929985025e+02 
4 1 -1.079454604202e+02   3.963988931042e+02  -2.521661448732e+02 
5 1  1.742526642522e+02  -5.557895583891e+02   4.542993390375e+02 
6 1  3.542395665189e+01   4.851598777379e+00   9.102715355074e+01 
7 1 -2.527031861661e+02  -5.420258225224e+02  -1.258836035331e+02 
8 1 -3.153719247724e+02   1.635007038856e+02  -1.324654693887e+02 
8
Step 51000
1 1  3.191147004927e+02  -3.152575264866e+02   7.229582839710e+02 
2 1  1.261474341591e+02  -3.734781282108e+02  -1.229123086590e+02 
3 1 -2.792254386698e+02  -4.831607374162e+01   4.054197219418e+01 
4 1  9.846080618324e+01   1.865201797589e+02  -8.413244945343e+01 
5 1  7.594357429364e+01   7.353440978940e+00   2.164299121114e+02 
6 1  2.633611054929e+01   2.468436134877e+02   8.069142943050e+01 
7 1 -8.101136376426e+00  -6.110190346374e+00   6.777759381478e+01 
8 1  5.013895738777e+01   3.915673724225e+02  -1.113885338805e+02 
8
Step 52000
1 1 -5.231094835726e+01  -4.008714686042e+02   6.154251147766e+02 
2 1 -1.496761374244e+02  -2.673589243229e+02  -1.474730618925e+02 
3 1 -6.015040734662e+02   4.914669960335e+02   1.589513148841e+02 
4 1  1.297919418315e+02  -1.215132723810e+02   4.609672798996e+02 
5 1 -1.586602685579e+01   6.389887134887e+02  -2.129502299528e+02 
6 1  2.022779602266e+00   4.063597178796e+02  -1.535091025637e+02 
7 1  2.868252136488e+02   3.824945045811e+02   2.106840750288e+02 
8 1  3.193849707274e+02   1.380762646989e+02  -5.854907866896e+00 
8
Step 53000
1 1 -2.089571621048e+02  -6.793683861390e+01   1.163275458919e+02 
2 1 -2.704785439302e+02   2.695224254131e+00  -1.145730723390e+02 
3 1 -2.757544554867e+02   5.562041742839e+02   9.205666429895e+01 
4 1  4.293988992566e+01  -2.432624175945e+02   5.234264402515e+02 
5 1  1.564236509443e+01   6.010860199671e+02  -3.137055217848e+02 
6 1  8.702972270883e+00   2.212975269879e+02  -2.319722314515e+02 
7 1  3.794886437189e+02   2.664654098360e+02   1.192176083728e+02 
8 1  2.626738012943e+02  -3.074365202015e+02   7.428391086437e+01 
8
Step 54000
1 1 -6.366673997327e+00   3.193606983325e+02  -2.411828182671e+02 
2 1 -9.041792842554e+01   2.361411868652e+02  -6.332795138470e+01 
3 1  2.720106608061e+02   1.234448020697e+02  -8.788180699190e+01 
4 1  3.627526311608e+00  -1.499116982903e+02  -2.417538591669e+01 
5 1  1.328910478188e+02  -2.221185458443e+01  -7.492300310041e+01 