8
Step 0
1 1  3.023859026055e+02   2.378816802784e+02  -9.555576813497e+01 
2 1  2.697713000661e+02  -2.546322453998e+02  -6.199506671967e+02 
3 1 -6.255592878208e+02  -1.652719680071e+02  -4.327187349958e+02 
4 1  1.094359229731e+02  -2.812415677186e+02   5.182986855887e+02 
5 1  6.418775273896e+01  -4.157455463467e+02  -2.316845659138e+02 
6 1  2.785438408206e+02   2.531813734805e+02   6.452012672630e+01 
7 1  1.707535445606e+02  -1.773918968688e+02  -4.312858342593e+00 
8 1 -5.187397608193e+02   9.509279551745e+01  -3.168950203061e+02 
8
Step 1000
1 1  2.509825926801e+02  -1.070864972632e+02  -7.151340191995e+01 
2 1 -4.371512604845e+00  -1.174463451198e+02  -2.324093078698e+02 
3 1 -6.048702870592e+01   7.339986020374e+01   4.826048816464e+01 
4 1 -1.501842808720e+01  -2.175972231190e+02   2.418248761079e+02 
5 1  7.961151107266e+01  -2.440181825958e+01  -5.156658423377e+02 
6 1  5.056806577920e+00   1.051010336899e+02  -1.421695571767e+02 
7 1 -2.218256923615e+02   2.076394347514e+02  -3.679362119545e+02 
8 1 -8.472952166899e+01  -1.231042010748e+02  -2.352079079102e+02 
8
Step 2000
1 1 -1.974979971217e+02   2.196594200098e+02  -5.367653255998e+02 
2 1  5.128627007835e+01  -2.691188658509e+02  -1.329899541163e+01 
3 1 -7.117117650520e+01  -4.953769217992e+01   1.754135768957e+02 
4 1  9.647511432041e+01  -3.770812677546e+02  -6.480690032465e+01 
5 1 -1.110236407018e+02   1.167180516617e+02  -2.474650813906e+02 
6 1 -2.065321532215e+02   2.130064550645e+02  -2.143539665040e+02 
7 1 -2.479647834848e+02   7.827403208777e+01  -1.895276546493e+02 
8 1 -2.975770852036e+02   2.672022037072e+02  -1.869636432710e+01 
8
Step 3000
1 1 -1.472069384974e+02  -1.271282815593e+02  -2.847531432221e+02 
2 1  6.599967588766e+01  -1.803552618053e+02  -2.588783491348e+02 
3 1 -3.191440705458e+02   3.413936464563e+02   9.992213824209e+01 
4 1 -7.032747714291e+01   1.686789937041e+02   3.575757602520e+02 
5 1 -8.568346844811e+01   4.000740063686e+02  -4.238851760437e+02 
6 1 -3.603648504114e+02   4.584903332400e+01  -9.715489857989e+01 
7 1  2.913959781965e+02   6.707284723036e+01  -3.247555135084e+02 
8 1 -2.737413803989e+02  -1.003042077682e+02  -3.541244839335e+02 
8
Step 4000
1 1 -7.695981408149e+01   1.964142651853e+02  -2.745124241919e+02 
2 1 -2.694494075518e+02  -2.781871221730e+02  -1.410918256438e+02 
3 1 -2.343756458407e+02   5.091282626353e+01   1.896044646567e+02 
4 1 -5.781984472144e+01  -4.719571329887e+02   7.087101515080e+02 
5 1 -4.512524382725e+01   4.970777269189e+02  -6.182844134914e+02 
6 1 -4.627593989285e+02   3.933631801064e+02  -7.450419917265e+01 
7 1 -3.261202089394e+02   5.880637865486e+02  -2.048715181123e+02 
8 1  1.598928341726e+01  -3.256016646467e+02  -9.109268433397e+01 
8
Step 5000
1 1 -1.547071580059e+02  -1.739231289612e+02   7.980582302642e+01 
2 1 -5.364248030716e+01  -1.966150178789e+02   9.201727124047e+00 
3 1 -3.000470171953e+02   7.001373678587e+02  -1.980137262234e+02 
4 1 -6.048717544071e+01   1.801378437153e+02   8.711704290678e+02 
5 1 -1.409480893047e+01   6.965850200069e+02  -1.414745686477e+02 
6 1  2.355383541700e+02   3.397206225756e+02  -2.865716549432e+02 
7 1 -2.247499818494e+01  -1.727375823422e+02  -2.922154907135e+02 
8 1  9.379898243862e+01  -1.045130391310e+02   3.999174823427e+01 
8
Step 6000
1 1 -7.839751320190e+01  -1.717784560394e+02  -2.135589099974e+02 
2 1 -3.875772253417e+02  -2.407803044537e+02   4.774453747370e+02 
3 1 -3.922823046910e+02   4.986881495648e+00   6.894802728087e+01 
4 1  1.214320650936e+02  -1.728056776855e+02   5.598446147741e+02 
5 1 -2.712514529855e+02   1.782226338935e+02  -3.325972132808e+02 
6 1 -3.899111954172e+02   2.828428616860e+02  -2.245770751950e+02 
7 1  1.313343936751e+02  -2.083492942752e+02   1.581329424786e+02 
8 1 -3.188555241993e+02   2.677679674926e+02   8.260236979313e+01 
8
Step 7000
1 1 -2.440206507818e+02  -1.603488059094e+02  -1.280282690057e+02 
2 1 -7.774899131800e+01   2.610129794357e+01   4.542887076299e+02 
3 1 -2.333702375098e+02   7.560936307542e+02   2.771303891988e+02 
4 1  7.049780872365e+01  -2.029951357618e+01   3.333286441729e+02 
5 1  5.417747476197e+02   4.964601273700e+02  -1.670340035386e+02 
6 1 -1.822457325735e+02   1.283966992555e+02   1.186847654740e+02 
7 1 -3.144189971180e+02  -7.156381702617e+01   2.646291939147e+01 
8 1  3.224750246266e+02  -4.496596148518e+02   3.099929436056e+02 
8
Step 8000
1 1 -2.790890945892e+02  -1.777783951359e+02   6.942827280107e+02 
2 1  8.258660875951e+01  -2.064344853795e+02   2.951981734049e+02 
3 1 -5.013385996274e+02   4.169777372853e+02   1.945534907578e+02 
4 1  1.418656358841e+02  -1.218024694463e+02   4.539537862092e+02 
5 1 -2.580521353191e+02   5.352245254589e+02  -8.324417995157e+01 
6 1 -1.122475636386e+00  -4.488474606963e+01   2.699587014054e+01 
7 1 -4.351687396444e+01   1.293203815357e+01   6.325045384081e+01 
8 1  7.704397853545e+01  -4.387182861711e+02   1.250018656302e+02 
8
Step 9000
1 1 -1.798505570227e+01   2.179946859897e+01   9.723618967341e+01 
2 1 -1.189686293290e+02   2.438651369785e+02   6.124972988879e+02 
3 1 -2.772924129898e+01  -1.130495570729e+02   1.958527505144e+02 
4 1  6.359896692086e+02  -2.532300256768e+01   4.363524280201e+02 
5 1  4.263991965623e+02   2.280882670580e+02  -6.122117373857e+01 
6 1 -4.078845647181e+02   2.593127950911e+02  -1.702381190042e+01 
7 1  3.615087588207e+01  -1.620766639729e+02   3.081644176323e+02 
8 1  4.195844123762e+01  -3.878721006246e+02   2.761627807188e+02 
8
Step 10000
1 1 -9.838832852735e+01  -1.962538650915e+02   4.870214876745e+02 
2 1  2.418156851125e+01  -3.042733204070e+02   7.466184842524e+02 
3 1  2.423722918385e+02   3.164829784313e+02  -1.588947089674e+02 
4 1 -5.433044681030e+02  -1.172020104596e+02   1.400992193824e+02 
5 1  5.257424491033e+02  -4.065666996845e+01  -1.159994645330e+02 
6 1 -1.503288510184e+02   2.148803956907e+02   2.941173941865e+02 
7 1 -1.704510406221e+02  -2.136422100487e+02   5.035511691046e+01 
8 1  3.966313558963e+02  -5.226967705140e+02   3.502743902711e+02 
8
Step 11000
1 1 -1.845446382897e+02   4.094489166717e+01  -1.007362187264e+02 
2 1  1.285172625936e+02   1.311328795990e+02   4.415265440704e+02 
3 1  4.550225157663e+02  -3.262176732372e+02   1.463361783814e+02 
4 1  2.837887748484e+02  -2.575529251954e+02   2.912160114306e+02 
5 1 -1.059027543085e+02   2.760006271599e+02  -1.158912132238e+02 
6 1  8.070532228292e+01  -1.667864431269e+02   3.727782456216e+02 
7 1  7.425344251799e+01  -3.024570540382e+02   2.417526661071e+01 
8 1  1.475573847774e+02  -5.767214294419e+01   2.533615690653e+02 
8
Step 12000
1 1 -4.816969114729e+01   2.359905885868e+02   2.425442561700e+02 
2 1  4.264349647672e+02   3.748642469694e+02   6.404717503014e+02 
3 1  1.324396796732e+02  -5.403620245828e+02  -9.493216811000e+01 
4 1  1.593383938541e+02  -6.169146754350e+01  -1.065600093316e+01 
5 1  7.579659416144e+02   6.906788594958e+01   1.787197536259e+02 
6 1  1.730321978517e+01   1.790812082807e+02   2.054725244436e+02 
7 1  1.871007404043e+02   5.533421744314e+01   9.872874556607e+01 
8 1  6.311428118998e+01  -5.301287552117e+02   7.322381657954e+01 
8
Step 13000
1 1 -2.132749412639e+02   8.351835335916e+01   8.283822904422e+01 
2 1  1.898779373527e+02  -1.986626634509e+02  -3.193680828225e+01 
3 1  5.066900056412e+02  -7.699798540490e+01  -5.936472754497e+00 
4 1 -3.516866178480e+02  -2.426839038066e+02   7.847224108363e-01 
5 1  3.438850754967e+02  -2.603725764211e+02   7.566519889341e+01 
6 1 -1.160870992808e+02  -1.171095422295e+02   1.158745767987e+02 
7 1 -9.349755675268e+01   2.596427484863e+01   3.925128663599e+01 
8 1  3.068740075726e+02  -3.928461879435e+02  -1.280482698670e+02 
8
Step 14000
1 1  3.007947943912e+02   2.714073861603e+02   1.840120893197e+01 
2 1  5.965415094464e+01   4.278310924613e+02   1.527792176056e+00 
3 1  6.917816090187e+02  -6.809042975171e+02  -3.357657911878e+02 
4 1  4.128235807649e+02  -4.039487619471e+02  -3.490436608521e+02 
5 1  3.136428910365e+02  -7.824103014307e+01   3.188214184933e+01 
6 1  3.343914521217e+02  -1.913910814281e+02   3.387514388873e+02 
7 1  1.928239032488e+01   2.296248868456e+02  -3.543397830343e+01 
8 1  8.404200755870e+01   4.168769221889e+02   3.206694001692e+00 
8
Step 15000
1 1  8.840411035427e+01  -2.999545490281e+02  -3.140801482693e+02 
2 1  7.961886865569e+01   2.316679852677e+02   2.412834688985e+02 
3 1  4.243978868329e+02  -4.998454074917e+01  -1.779628285518e+02 
4 1 -5.314693540599e+02   1.373031148900e+02  -5.794712604501e+02 
5 1  1.366154816526e+02  -4.289924551267e+02   2.022955648399e+02 
6 1  1.139840631005e+02  -1.709323303544e+02   2.451875395565e+02 
7 1  1.103886483094e+02   1.694737200866e+02  -2.377375693548e+02 
8 1 -2.927724827819e+02   1.771471157823e+02  -2.259021077248e+02 
8
Step 16000
1 1  7.868053311719e+01   5.332368436231e+02  -3.485796915441e+02 
2 1  1.073112923871e+02  -1.123007348216e+02   1.262492091512e+02 
3 1  7.560260714732e+02  -4.355168078300e+01   4.174689223776e+01 
4 1 -9.219588187616e+01  -2.437837064287e+02  -3.655444487059e+02 
5 1  3.520897052241e+02  -3.716985352032e+02   1.556682946934e+02 
6 1  1.013890657921e+02   4.587204943892e+02   1.742358487470e+02 
7 1 -1.197409736919e+01   3.875513846508e+02  -1.935518230062e+02 
8 1  8.378300983706e+01   6.304649825646e+02  -4.414492775582e+02 
8
Step 17000
1 1  2.496543059042e+02  -5.141037006212e+02  -2.104508836117e+02 
2 1  2.433813676541e+02   3.834697499627e+02  -4.259570567216e+01 
3 1 -1.789080750332e+02  -1.985750107313e+02  -2.105144968609e+02 
4 1 -4.243279844026e+02   1.468741203522e+01  -2.794611645062e+02 
5 1 -2.704299272361e+02  -4.623355203657e+02  -2.689522674272e+01 
6 1 -9.544678216529e+01   1.083323565650e+02   4.696818202098e+01 
7 1 -3.209461420221e+02   3.546335175760e+02  -4.743077552692e+02 
8 1 -2.902293023783e+02   2.439815497565e+02  -5.389040182649e+02 
8
Step 18000
1 1  5.456268194276e+01   1.508850462060e+02  -2.010307389055e+02 
2 1  6.353264323080e+02  -5.782833619652e+01  -3.156953466930e+02 
3 1  3.954346694976e+02   2.641480399414e+02  -7.761867118416e+00 
4 1 -3.894160610266e+02   4.324238665970e+02  -8.231288084542e+01 
5 1 -1.691192629835e+02  -8.454892513903e+01  -3.744699864499e+01 
6 1 -2.490543695902e+02   9.184794686960e+01   8.467175840590e+01 
7 1  2.894708396722e+02   7.088542813720e+02  -3.150413469712e+02 
8 1 -6.142498950594e+01   1.402912052141e+02  -2.222504065431e+02 
8
Step 19000
1 1  2.701671574939e+02  -2.513781244650e+02  -5.011965889858e+01 
2 1 -6.488224816923e+01   1.254519571102e+02  -3.251595181445e+02 
3 1  2.723934327891e+02   3.613736925085e+02   1.808568250970e+02 
4 1 -2.834411749983e+02   2.369002988374e+00   8.455275780243e+01 
5 1 -6.758989158844e+01   4.042045662548e+02   3.055149835226e+02 
6 1 -1.192835519909e+02   6.121314455236e+01   8.797197930228e+01 
7 1 -9.718164101211e+01   4.708471057748e+02  -5.020301620992e+02 
8 1 -2.933807548281e+02   7.019473358796e+02  -4.949558134828e+02 
8
Step 20000
1 1 -2.741583380983e+01  -2.280274113400e+02  -1.586176000803e+02 
2 1  2.623108550523e+02   2.023237993666e+02   2.908362303649e+02 
3 1 -8.974870041738e+01   9.089956623710e+01   2.177611626063e+02 
4 1  1.008371660019e+02   7.426286472936e+02  -1.784250269251e+02 
5 1 -4.185449956087e+01   2.075666494988e+02   3.034077095057e+02 
6 1 -1.947022873912e+01   1.468423098730e+02   2.162663379869e+02 
7 1 -5.810269352828e+01  -7.502338489492e+01  -6.258692940039e+02 
8 1 -1.854801145164e+02   6.274694168768e+02  -3.508988441518e+02 
8
Step 21000
1 1  3.355112328034e+02   4.699578080940e+02   1.800346729509e+02 
2 1 -1.646277624170e+01  -3.829921315793e+02  -3.837397888842e+02 
3 1 -1.112733128465e+02  -1.132230738924e+02   2.563994302430e+02 
4 1 -2.075431213448e+02   3.479390776001e+02  -1.474570403555e+01 
5 1  2.202052635663e+02  -2.272785310418e+02   4.262586210307e+02 
6 1 -2.420284312466e+02   4.517952954514e+02   2.263779592894e+02 
7 1 -1.111728321387e+01   3.433666641813e+02  -6.435257232161e+02 
8 1 -7.850985670061e+01   4.061670115737e+02   9.544129469463e+01 
8
Step 22000
1 1  1.121845934121e+02  -5.845025527811e+02   3.102906149296e+02 
2 1  1.713521481351e+02   2.548695598549e+01  -7.551605488842e+01 
3 1 -1.441662232549e+02   7.539893451814e+02   4.159777481682e+02 
4 1 -3.524371835847e+02   5.538741384837e+02  -4.289966712080e+02 
5 1  4.018297920795e+02  -2.793982025803e+02   3.333848611479e+02 
6 1 -3.123129361295e+01  -4.096168131733e+02   2.827548985313e+02 
7 1 -8.005172598533e+01   3.303572522472e+02   1.773418287042e+02 
8 1  1.322679707204e+02   2.795776146103e+02  -5.269133512508e+01 
8
Step 23000
1 1 -1.986583576056e+02   2.374361214471e+02   9.233189627357e+01 
2 1  3.495196141629e+02  -1.547551751769e+02  -2.428125396433e+02 
3 1 -4.430898576725e+02  -2.682302997077e+01   3.737450327760e+02 
4 1  1.956950568673e+02   3.749755591210e+02   1.471948125859e+02 
5 1  1.046871106007e+02  -9.449887242175e+01   4.759564013812e+02 
6 1  2.909413049062e+02  -1.150472749719e+02   1.454509366423e+02 
7 1  3.231926417417e+02   1.740976345546e+02   4.867956394736e+02 
8 1  3.445677122951e+02   6.141155593891e+02   8.806630269388e+01 
8
Step 24000
1 1  1.069160785171e+02  -3.200666172965e+02   5.058721414531e+02 
2 1 -3.831338814523e+02  -2.211067544832e+02  -8.841831690003e+01 
3 1 -1.522916106263e+01   2.597232159020e+02   1.231653910761e+02 
4 1 -8.445871281039e+01   1.994693670281e+02  -5.567055732618e+01 
5 1 -8.395995466218e+01  -3.674973976211e+01  -1.228198947913e+02 
6 1  3.116367477582e+02  -3.696860749486e+02   3.448966582310e+02 
7 1  1.257997163420e+02  -6.611187120713e+02  -1.154462912443e+02 
8 1 -2.582556634361e+02   1.541662309275e+02   2.509773520907e+02 
8
Step 25000
1 1  4.319735472580e+01   2.905894030621e+02  -1.495449689416e+02 
2 1  6.111972078562e+01  -5.180659554951e+02   1.968060876639e+02 
3 1  1.576060988327e+02  -6.397953125314e+01   2.533401170487e+02 
4 1 -3.101534740476e+02  -7.824459367777e+01  -3.894718233207e+01 
5 1  4.432385778812e+02   1.709743308312e+02  -8.311767444896e-01 
6 1 -6.946696316787e+01  -1.578659586662e+02   4.548618099961e+02 
7 1  1.522221625239e+02  -3.832633900454e+02  -2.535542031490e+01 
8 1  6.167255819384e+02  -5.883046552041e+01   4.085608600626e+02 
8
Step 26000
1 1 -1.529261757230e+02   1.003076506554e+01   4.598088670809e+02 
2 1  2.508836332901e+02  -4.410872156123e+02  -1.647184116561e+02 
3 1 -4.071796645629e+02  -7.602905389508e+01  -1.428768549252e+02 
4 1  1.853687284049e+02   2.508616747009e+02   2.080243863984e+01 
5 1  2.650909110027e+02  -3.548440772663e+02   1.908684587272e+02 
6 1 -1.512750166002e+02  -1.996785833138e+02   1.385096638398e+02 
7 1 -9.254907921157e+00  -5.789544244987e+02   2.325516693424e+02 
8 1  4.822247262565e+02  -1.858910675732e+02   4.836988810589e+02 
8
Step 27000
1 1 -1.713013337916e+02  -6.294822778011e+01  -3.832347956715e+01 
2 1  1.003297764156e+02  -3.931750830536e+02  -8.069064782354e+01 
3 1  2.497359660456e+02  -2.084219755841e+02   5.410845684680e+02 
4 1  1.238267458832e+02   3.408659521296e+02   7.444164992091e+01 
5 1  3.003317201340e+02  -2.879466601488e+02  -2.115712630324e+02 
6 1  2.121764726987e+02   1.925003573414e+01  -3.717636203902e+01 
7 1  1.399653724967e+02  -2.017426392057e+01  -2.582155242102e+02 
8 1  1.241955711684e+02  -3.291103951321e+02   5.493615770880e+02 
8
Step 28000
1 1 -4.256232170509e+02   2.301055124596e+01   1.952963564972e+02 
2 1  2.790311766570e+01  -2.837168707134e+02   1.598068546880e+02 
3 1 -1.259348776459e+02  -2.569831991693e+02  -2.733859722145e+02 
4 1  9.586943299906e+00  -1.375018919584e+02  -1.823545170838e+02 
5 1  2.253250738949e+01  -1.332303943795e+02  -1.440657965542e+02 
6 1 -2.684127469411e+02  -1.997797893867e+02  -2.971258865358e+02 
7 1  2.487181717421e+00  -4.275716392468e+02  -1.306755504954e+02 
8 1  6.869097420386e+01  -6.322555955055e+02   2.410529631482e+02 
8
Step 29000
1 1  1.136450295087e+02   2.708274759429e+01  -7.527055549607e+02 
2 1  8.508918597687e+01  -2.965986548065e+02   2.025822089028e+02 
3 1 -9.339964944054e+01  -2.596445480077e+02   2.018914180568e+02 
4 1  3.527211881734e+02  -3.257217760534e+02   1.897757708389e+02 
5 1 -2.296332662760e+02   2.660874843681e+02  -3.616827739136e+02 
6 1 -1.325168416936e+02   1.141150806793e+02  -4.521332272255e+02 
7 1 -5.013306280044e+01  -3.346096502909e+02   1.668887636317e+02 
8 1 -4.564752679096e+01  -2.659719057939e+02   3.505216297841e+01 
8
Step 30000
1 1 -3.847202494562e+02   2.080722520337e+02  -4.598041352475e+02 
2 1 -1.191446665484e+02  -1.891990240036e+02  -1.940321760752e+02 
3 1  8.549102901928e+01  -2.943395338529e+01   1.564227214428e+02 
4 1 -2.874330248429e+02   6.819030742571e+01  -2.478222290118e+02 
5 1 -7.722219037401e+01   2.186272132223e+02  -5.801776694329e+02 
6 1  2.409311411385e+01  -7.124341086734e+01  -3.619204493359e+00 
7 1 -7.796782974973e+01  -2.073771509635e+02   1.286468034912e+02 
8 1  7.511545564565e+01  -4.533841501246e+02   4.213541820045e+02 
8
Step 31000
1 1 -1.639837578485e+02  -6.375166120150e+00  -3.938573893005e+02 
2 1  4.170274283925e+01  -1.590823394454e+02  -1.499446276659e+01 
3 1 -5.568724938681e+01  -8.913788900597e+01  -1.909788291408e+02 
4 1 -2.964609606414e+02  -1.312236206474e+02   2.776373898540e+02 
5 1 -2.544545284429e+02   6.166259714670e+01  -6.290606986132e+02 
6 1 -6.544688606113e+02   1.940643125536e+02  -4.587218538802e+02 
7 1  4.200063493124e+01  -9.338952933665e+01  -2.403340357390e+02 
8 1 -1.721496672701e+02  -1.396411516511e+00  -9.587017343174e+01 
8
Step 32000
1 1 -2.772048283975e+02  -1.693693743753e+02  -5.860731134265e+02 
2 1 -5.851713071075e+00   4.644195297646e+02   1.150434937214e+01 
3 1 -2.259797875518e+02  -1.192307415081e+02  -1.217798352583e+02 
4 1 -9.877674913540e+01   1.345621354062e+02   2.911654728203e+02 
5 1 -1.507517409346e+02   6.544135298224e+02  -6.425689162585e+02 
6 1 -3.548942576462e+01   5.638732667770e+01  -5.285802020830e+02 
7 1 -9.368938334814e+01  -5.169697311303e+02   1.202270932214e+02 
8 1 -4.908476708489e+02  -2.211229180656e+02  -1.427818121850e+02 
8
Step 33000
1 1  2.696972412219e+02  -1.157947642543e+01  -4.370212570136e+02 
2 1 -1.732353711242e+02   4.736391209807e+02  -2.498168887115e+02 
3 1  7.395443701918e+00  -3.734500563335e+02  -3.493304976448e+02 
4 1 -3.604159901526e+02  -8.185022177593e+01   1.256617778046e+02 
5 1 -7.365082727854e+02   2.844697590772e+02   1.176673204652e+02 
6 1 -6.545990663234e+02  -1.623598396903e+02  -1.467926241362e+02 
7 1 -2.743168976007e+02   2.316946120554e+02  -5.201229763929e+02 
8 1 -2.721283518637e+02   2.315453725434e+02  -9.703866994550e+00 
8
Step 34000
1 1  3.960663107841e+01  -2.644602102522e+01  -7.653784075059e+02 
2 1 -1.920878819309e+02   4.355696007556e+02   3.481177120308e+02 
3 1 -1.245393984174e+02   2.705488814226e+02  -3.934512266728e+02 
4 1 -1.351450048185e+02  -1.464905337239e+02   1.378658717501e+02 
5 1  1.306371167500e+02   1.797415088858e+02  -3.241813785230e+02 
6 1 -5.514139984956e+02   2.745690875358e+02   2.726640555932e+02 
7 1 -1.281017807688e+02   1.738241664278e+02  -5.511588477182e+01 
8 1 -3.445238831196e+01   6.799619890847e+01  -1.365334376429e+02 
8
Step 35000
1 1  1.439990129413e+01   1.776602011335e+02   2.022677840474e+01 
2 1 -1.300554987740e+02   1.709499635533e+02  -1.982437361149e+02 
3 1  6.330895577455e+01  -1.161452008147e+01   5.702960218102e+01 
4 1 -3.581771111020e+02  -4.854389398588e+02   3.015111936553e+02 
5 1 -3.497901097624e+02   3.380765357244e+01  -3.566496200063e+02 
6 1 -4.897735185003e+02   1.562679844239e+02   1.174538210798e+02 
7 1 -7.013885410382e+02   2.321903426700e+02  -1.169041122315e+01 
8 1 -3.629127450500e+02   4.005239059750e+02  -8.459230828616e+02 
8
Step 36000
1 1  1.330494744834e+02  -1.151585172524e+02  -4.391930624502e+02 
2 1 -3.222174399544e+01   5.660236324963e+02   6.828255548534e+01 
3 1  4.367198968016e+02   1.474964573568e+01   1.131096098135e+02 
4 1  8.711909427262e+01  -2.512156890389e+02   1.335554532651e+02 
5 1 -3.250060536698e+02  -2.692557123416e+02   1.364345105159e+02 
6 1 -3.447051379262e+02   3.429097752986e+02   2.976640401106e+02 
7 1  7.927102434547e+01   5.899606895939e+02   3.835758873230e+02 
8 1  3.167199080268e+01   2.351747441177e+01  -4.215067970096e+02 
8
Step 37000
1 1  4.023175532531e+02   2.493709033854e+02  -9.364682920609e+01 
2 1 -6.409612195951e+01   4.154451378485e+02   5.108877806900e+02 
3 1 -1.637387976506e+02  -1.599895221275e+02  -2.044217869787e+02 
4 1  1.578062631423e+02  -3.776940533823e+02   5.964031011576e+02 
5 1  3.023212247785e+02   1.450528863470e+02   1.138036700101e+02 
6 1 -4.316990271157e+02   3.121384959228e+01   6.292200774258e+02 
7 1 -2.052634817081e+01   2.008584823960e+02   1.555302528094e+02 
8 1 -6.936558417731e+02  -2.619809567015e+02  -1.941199600475e+02 
8
Step 38000
1 1  3.725661423671e+02   1.383700764734e+02  -7.944964027869e+01 
2 1 -2.981184940360e+01   1.818654107059e+02   2.032323389512e+02 
3 1  2.378933100035e+02  -2.814653909691e+02  -1.605835306828e+02 
4 1  1.569892071952e+02  -4.511780000475e+02   2.405895000592e+02 
5 1 -1.075334374975e+02   1.555831155322e+00   4.451038845613e+02 
6 1 -1.718097119843e+02  -3.023747441484e+02   4.990152222123e+02 
7 1  2.341461441601e+02   4.666581025846e+02   3.168577126090e+02 
8 1  4.275407894246e+02   6.039808738341e+02  -1.611117723783e+02 
8
Step 39000
1 1 -2.414646272329e+01   6.443785226914e+01   3.338765353037e+02 
2 1 -3.636066794916e+02   1.286393399033e+02   3.602476312159e+02 
3 1  1.700887933570e+02  -1.523370773372e+02   6.432343312097e+01 
4 1  1.403694732468e+02   1.301526599056e+01   1.370218505004e+02 
5 1  5.368596013554e+01  -3.750942510037e+02   5.539544214415e+02 
6 1  1.129365629753e+02  -3.201106012247e+02   1.429351907708e+02 
7 1  1.390475221614e+02   2.796659572064e+02   5.089168931975e+02 
8 1  1.455880744991e+02  -3.231358680853e+02  -4.813808093470e+02 
8
Step 40000
1 1  3.397896838206e+02  -7.890080684578e+01   4.611031051297e+02 
2 1  2.699350993090e+02   9.924591996379e+00  -6.615882403770e+01 
3 1  1.270094811562e+02  -6.246012928534e+01  -1.233069610903e+02 
4 1  8.345502934980e+01  -2.430826272899e+02   5.301635566555e+02 
5 1  4.840256020029e+02  -3.433172906445e+02  -2.291942417186e+01 
6 1  3.457646348605e+01  -1.465840473199e+02   9.206674886718e+02 
7 1  4.787392402727e+02   4.489821636380e+02   8.758250710778e+01 
8 1 -1.785668351383e+01  -3.034393500388e+02  -1.021929053686e+02 
8
Step 41000
1 1  2.970389698079e+02  -7.825775602897e+01   1.082725898374e+02 
2 1 -3.110581751600e+02   4.490477830783e+01   3.504351887995e+02 
3 1  2.843140829361e+02   9.880040118395e+01   7.409168324102e+01 
4 1 -1.500428795516e+02  -7.309256785788e+00   3.085111308525e+02 
5 1 -1.314054453643e+02  -1.516727994314e+02  -2.221679618462e+02 
6 1  1.742042739861e+02  -9.562266399370e+01   9.880838209404e+02 
7 1  6.955861847214e+02  -1.498448315684e+02   3.461510096513e+01 
8 1  5.005954137146e+02  -5.507328483777e+01   1.620027947141e+02 
8
Step 42000
1 1  2.540229348207e+02  -7.291946264526e+01   2.918963113459e+02 
2 1  6.143609145110e+01  -1.164873742541e+02   2.332442901308e+02 
3 1 -3.934630746287e+02  -2.134560486288e+02  -1.582787953123e+02 
4 1 -1.319579046259e+01  -6.697345342344e+00  -2.642902301904e+02 
5 1  1.643942452855e+02  -3.470197302687e+02   7.799618051345e+01 
6 1  4.291966581036e+02   4.982593854719e+01   1.293316797296e+01 
7 1  3.086784932041e+02  -1.224595171204e+01   4.666338526629e+01 
8 1 -8.401826374078e+01  -1.191395769447e+02  -3.887941392144e+02 
8
Step 43000
1 1  3.562783618014e+01  -2.681234327332e+01   2.943139306374e+02 
2 1  1.162084774278e+02  -2.171418164692e+02   2.756416931120e+02 
3 1 -1.419035677509e+02  -1.468127187801e+02  -1.829428800105e+02 
4 1 -6.552466761542e+01   8.173312669348e+01  -5.332002214814e+01 
5 1  2.563792720732e+02   1.531664081274e+02   9.394509482312e+01 
6 1  3.330760528078e+01  -2.033033877086e+02  -3.667018214529e+02 
7 1  6.327967661525e+02   2.191758417575e+02   2.925354821049e+01 
8 1  5.531187597030e+02  -1.829760788366e+02  -1.069424217784e+01 
8
Step 44000
1 1  3.783372007246e+00  -1.359757163334e+02  -2.204032931059e+01 
2 1  5.114297194629e+01  -2.865564947783e+02  -1.905265846869e+02 
3 1  4.398742354332e+01   5.659907494014e+02  -6.403493002497e+01 
4 1 -3.345377524440e+02   1.182934166314e+00   7.324065220892e+01 
5 1  2.934615347214e+02   2.771219281453e+02  -3.171497560194e+02 
6 1  1.624491834213e+02  -2.295683944006e+02  -2.262922462354e+02 
7 1  1.201036636145e+02   2.207717345365e+01  -3.453880972621e+02 
8 1  2.015904169609e+02  -2.510601931084e+02   1.098556892664e+02 
8
Step 45000
1 1  2.433203637268e+02   3.263486333193e+01   1.030899608213e+02 
2 1  2.652053093978e+02  -3.345367364562e+02  -5.779449875968e+02 
3 1 -5.348013422443e+01   3.561182052400e+02  -1.421976147225e+02 
4 1 -6.542310105479e+01   3.795790264461e+02  -4.752895836662e+01 
5 1  5.285096668427e+01  -8.567693273182e+01   1.133737920685e+02 
6 1  2.142625832899e+02   1.549742161234e+02  -3.187703230365e+02 
7 1  2.380471285676e+02   1.936671604759e+02  -2.615426774096e+02 
8 1 -1.262210102333e+02   2.069947508527e+02  -1.107832677571e+02 
8
Step 46000
1 1 -1.003476374250e+02   1.072922057346e+02  -2.436323854831e+02 
2 1 -2.516024386994e+02  -1.018022595209e+02   5.787081540923e+01 
3 1 -2.341569893216e+01  -2.913930299494e+02   2.449668858038e+02 
4 1 -3.540552275120e+02   7.140518102719e+02  -2.199968027311e+02 
5 1 -1.711061314068e+02   1.480167353979e+02  -2.498576660914e+02 
6 1 -9.043557619134e+01   3.870354679930e+01  -6.293581916009e+02 
7 1  2.128168223876e+02   1.283935434491e+01  -6.377086116488e+02 
8 1 -3.460886541317e+02  -1.884640643440e+02  -2.189920798349e+02 
8
Step 47000
1 1  2.304567424694e+02   3.379699642164e+02   2.806374099330e+02 
2 1  2.763469624673e+02  -2.615084041722e+02  -1.963847948927e+02 
3 1  1.393374742390e+02   1.812146508638e+02  -9.328247871472e+01 
4 1 -7.810752218674e+01   2.192180425189e+02  -1.468717520768e+02 
5 1 -1.331941967563e+01   4.213277135243e+02  -5.037286410424e+01 
6 1 -6.593940358951e+01   1.973628597187e+01   2.306239692839e+01 
7 1 -2.229301974786e+01   1.994227443723e+02  -7.244469644145e+02 
8 1 -3.060927184642e+02   1.692039199611e+02  -2.469948652747e+02 
8
Step 48000
1 1 -2.305510551259e+02   1.117461685244e+02  -4.216471384927e+02 
2 1  1.508784184115e+02  -3.382398490974e+02  -9.747444683952e+00 
3 1 -5.188388478190e+02   6.403723789824e+02   1.922249895207e+02 
4 1 -9.372210187837e+01   5.133876662971e+02   2.420111226295e+02 
5 1 -3.594781805411e+02   3.557696769113e+02   1.582292069469e+01 
6 1 -1.940989334434e+02   2.664341556213e+02  -3.812289698896e+02 
7 1  1.116675440252e+02  -3.206598427415e+02  -3.332744237400e+02 
8 1 -2.289002994238e+02  -1.002373827910e+02   3.173161595410e+01 
8
Step 49000
1 1  4.144660397158e+02   2.493717385032e+02   2.148182868822e+02 
2 1  4.115722538198e+02   2.325812237458e+02  -1.912687345443e+02 
3 1  1.092052792578e+02   6.868769577468e+01   3.265322571663e+02 
4 1 -4.021588037708e+02   5.505163815336e+02  -1.143825705647e+02 
5 1 -3.083399888771e+02  -2.427247454493e+02   5.736096394573e+01 
6 1 -1.680704749867e+02   2.171304549126e+02  -4.603977654634e+02 
7 1 -2.240201076366e+02   1.509099251133e+02  -4.649794871361e+00 
8 1 -2.627615646382e+02  -1.750733207928e+02  -2.674929416450e+02 
8
Step 50000
1 1  1.961766977211e+02   2.767278936157e+02   1.660223281511e+01 
2 1  2.384509424785e+02  -2.323838704412e+02  -3.491702622293e+01 
3 1 -3.704819850276e+02   4.277018308235e+02   3.363910771896e+02 
4 1 -3.081138209741e+02   4.137215938521e+02   3.754487347755e+02 
5 1 -8.684886735394e+01  -1.048756813922e+01   5.902730739619e+02 
6 1 -9.015746860861e+01  -2.518136903972e+02   6.302921706156e+01 
7 1 -2.665248207508e+02   1.084615336053e+02  -3.091873057475e+02 
8 1 -1.794758078972e+02   9.416664284809e+01  -8.937166454771e+01 
8
Step 51000
1 1  2.263584125459e+02   3.905594581383e+02   3.971960870088e+02 
2 1  5.900436700126e+02   1.514653583826e+02   6.266413799745e+02 
3 1 -5.204410070451e+01   4.462593288094e+02   5.012451896655e+01 
4 1  4.449619314753e+01   2.186334643157e+02  -1.447207045062e+01 
5 1 -1.060785259770e+02   7.368402137537e+01  -1.686051284430e+01 
6 1 -2.487407480874e+02  -1.348983293867e+02   1.498310124159e+02 
7 1  1.037874383236e+02  -5.982815851476e+02  -1.173266189470e+02 
8 1 -4.310617957217e+02   6.222027186838e+01   3.032091452025e+02 
8
Step 52000
1 1  7.850348076470e+01   1.369929929246e+02  -1.641553986886e+02 
2 1  4.478461799967e+02   1.964131655041e+02   7.661589515483e+01 
3 1  2.482095839594e+02   2.293905221724e+02   5.160611203455e+02 
4 1 -6.749747043671e+01   6.573852517772e+02  -1.732376849887e+02 
5 1  1.128954857392e+02  -4.656559869974e+01   6.711912870614e+02 
6 1 -2.756559668752e+02  -1.407940865896e+02   3.177302504223e+02 
7 1 -1.826033492446e+02  -3.852943006301e+02   3.751043537099e+02 
8 1 -2.903983143207e+02   1.567819323569e+02   3.277307015407e+02 
8
Step 53000
1 1  3.930611949440e+01   8.396289283348e+01   2.829123574173e+02 
2 1  3.668049436227e+02   2.611845974183e+02  -4.777506040193e+01 
3 1 -1.801933288969e+01   2.081710825706e+02   5.240990861347e+02 
4 1  9.588139003280e+01  -2.232833163158e+02  -1.279573718267e+02 
5 1 -2.748378175067e+02   2.258939495668e+02   3.674512024149e+02 
6 1 -2.295111374126e+02  -1.461958567160e+02  -7.846246145699e+01 
7 1 -1.551658705443e+02  -5.111577241569e+02   2.079384673024e+02 
8 1  2.332080496258e+02  -2.109875938467e+02   1.081876916798e+02 
8
Step 54000
1 1  2.701489225306e+02   1.913661466622e+02   1.535805836616e+02 
2 1  4.203974492890e+02   2.074902377384e+02  -1.752353045930e+02 
3 1  1.745036029449e+02  -9.490785104701e+01   3.138993195208e+02 
4 1  2.081466049538e+02  -5.621032436004e+02   2.612607661548e+02 
5 1 -7.626956675468e+01   2.704702858579e+02   1.006616753863e+02 