8
Step 0
1 1 -2.35270108009062485e-02 6.55802071537643812e-03 1.03880540142955481e-02
2 1 -2.86538293731895301e-03 1.16362102979570559e-02 -1.73033438979837348e-02
3 1 -8.44297387963185487e-04 9.07873581449432192e-03 -7.10088508799178435e-03
4 1 5.98849862501121474e-03 2.16152655666202349e-02 2.83247875209107006e-02
5 1 -4.37824473995288531e-03 2.55906978834646685e-02 7.11756840130196335e-03
6 1 -1.18511921353562193e-02 -1.69904716046251937e-02 -1.09602388590165373e-02
7 1 -1.68476284936189963e-02 -9.50546947170607254e-03 1.86715301109692984e-02
8 1 -1.05703258971550172e-02 -3.38139997473977938e-02 -7.88957080128427834e-04
8
Step 10
1 1 -2.17940980544957946e-02 6.39442397973264114e-03 7.51214319948062450e-03
2 1 -5.94121032164508225e-04 8.04556114456325862e-03 -1.81148381420256979e-02
3 1 -2.73802792559421160e-03 6.54712308478255789e-03 -7.34493268352881708e-03
4 1 9.79666737787384875e-03 2.05509688264463447e-02 2.86051898844907962e-02
5 1 -4.29875695145935958e-04 2.42467515981484305e-02 5.26304137230603538e-03
6 1 -1.15682792655509830e-02 -1.34821361524590285e-02 -7.82319853263468111e-03
7 1 -1.77025988860377743e-02 -9.35322051184509298e-03 1.55736036000192115e-02
8 1 -1.16495668357116371e-02 -3.38674431598809875e-02 -7.10130659702083115e-04
8
Step 20
1 1 -1.96916593063485371e-02 6.19882463645954427e-03 4.45645787764647246e-03
2 1 1.86491347999610054e-03 4.13353395643611607e-03 -1.88891498147298019e-02
3 1 -4.79949938445815589e-03 3.82090996476363567e-03 -7.57145417486802808e-03
4 1 1.37286329868686694e-02 1.91666184643680335e-02 2.87604939204672491e-02
5 1 3.67469022356202608e-03 2.25512876765111420e-02 3.20824622235061892e-03
6 1 -1.10636312751481499e-02 -9.57413686526006023e-03 -4.50828804244092496e-03
7 1 -1.84098378982470480e-02 -9.09790784426534049e-03 1.21544984173256720e-02
8 1 -1.27460658306291826e-02 -3.35502945003983769e-02 -6.55975186097360551e-04
8
Step 30
1 1 -1.73348757245402815e-02 5.98120900227221489e-03 1.41446503721747016e-03
2 1 4.35550040970802271e-03 1.50737982932849850e-04 -1.95699687077971682e-02
3 1 -6.90776695550659407e-03 1.07238791816822586e-03 -7.76903232850974408e-03
4 1 1.75249613754718085e-02 1.75337277165686575e-02 2.87816315846912314e-02
5 1 7.66381612538063420e-03 2.05864324733113190e-02 1.06697898937909048e-03
6 1 -1.03545304705505783e-02 -5.49540393701088929e-03 -1.22905737115969367e-03
7 1 -1.89233549723878507e-02 -8.73448125481325437e-03 8.62355982210285740e-03
8 1 -1.37868984799278671e-02 -3.28498460519875551e-02 -6.19330360927770928e-04
8
Step 40
1 1 -1.47585326117981239e-02 5.74343617982411847e-03 -1.57107023905451136e-03
2 1 6.83801246496788372e-03 -3.83635507216368351e-03 -2.01458594404538664e-02
3 1 -9.03862360930832512e-03 -1.65753289196768588e-03 -7.93961307415845703e-03
4 1 2.11294902154899843e-02 1.56783343647114090e-02 2.86783787301422531e-02
5 1 1.14764673228143939e-02 1.83741660272148701e-02 -1.13993946101956104e-03
6 1 -9.45145764560664098e-03 -1.29848109230236235e-03 1.96627621208418776e-03
7 1 -1.92497253526770287e-02 -8.25382180170064136e-03 5.03301371937497216e-03
8 1 -1.47566538391535225e-02 -3.17711391778180766e-02 -5.87592094202994426e-04
8
Step 50
1 1 -1.19997389370145729e-02 5.48713623173859889e-03 -4.45865587203842124e-03
2 1 9.27288204183037736e-03 -7.76198062011410755e-03 -2.06056962705026617e-02
3 1 -1.11673419543228715e-02 -4.32888654308680437e-03 -8.08471284251845342e-03
4 1 2.44883834620818891e-02 1.36291147636501322e-02 2.84603455052326038e-02
5 1 1.50547124690270408e-02 1.59389901569259931e-02 -3.39022964537266007e-03
6 1 -8.36710106934928331e-03 2.96288323370472433e-03 5.03145917048411582e-03
7 1 -1.93975549435621286e-02 -7.64864150883811950e-03 1.43536803304009065e-03
8 1 -1.56399616980527102e-02 -3.03239807217789703e-02 -5.48200785209197999e-04
8
Step 60
1 1 -9.09754375022111227e-03 5.21368162089243161e-03 -7.20843106947222437e-03
2 1 1.16210424326270070e-02 -1.15618108872247924e-02 -2.09388017512499303e-02
3 1 -1.32688270471940702e-02 -6.90300542637229970e-03 -8.20536348333528003e-03
4 1 2.75506500327087241e-02 1.14170195877207788e-02 2.81367517617058735e-02
5 1 1.83442389819753679e-02 1.33078195677431600e-02 -5.66023038917719528e-03
6 1 -7.11621778400679111e-03 7.23405012950410157e-03 7.92265278889727961e-03
7 1 -1.93772266101779785e-02 -6.91373852025742915e-03 -2.11700858724926666e-03
8 1 -1.64216681358496062e-02 -2.85228662338182781e-02 -4.88973901314421178e-04
8
Step 70
1 1 -6.09257367738031460e-03 4.92416790236935992e-03 -9.78254033859765268e-03
2 1 1.38443772183129022e-02 -1.51736745339438456e-02 -2.11351430703144924e-02
3 1 -1.53177898569331217e-02 -9.34286644588913986e-03 -8.30208531020257962e-03
4 1 3.02687289871860880e-02 9.07494376210712418e-03 2.77162712442640298e-02
5 1 2.12948988552241238e-02 1.05099072739018515e-02 -7.92500424608463122e-03
6 1 -5.71552540701594173e-03 1.14598179891698126e-02 1.05988878849560854e-02
7 1 -1.92006823732653840e-02 -6.04625724989077493e-03 -5.57231474844871195e-03
8 1 -1.70870647333086177e-02 -2.63869804896822331e-02 -3.98414545960113094e-04
8
Step 80
1 1 -3.02665686281707730e-03 4.61939759742592548e-03 -1.21455486064534577e-02
2 1 1.59062070940363190e-02 -1.85383176403002767e-02 -2.11855864714420132e-02
3 1 -1.72889666287624304e-02 -1.16134676934259422e-02 -8.37488925870296004e-03
4 1 3.25991648703784290e-02 6.63743135279338831e-03 2.72069304308349726e-02
5 1 2.38613166542523958e-02 7.57677112380510803e-03 -1.01584967887741635e-02
6 1 -4.18360646136406791e-03 1.55848184281703814e-02 1.30225534214402049e-02
7 1 -1.88812380323418252e-02 -5.04594185549795196e-03 -8.87979783189138047e-03
8 1 -1.76221632817909132e-02 -2.39402605916333201e-02 -2.65991931303350337e-04
8
Step 90
1 1 5.76013112200809559e-05 4.29985991436399820e-03 -1.42649095229952384e-02
2 1 1.77718321519912022e-02 -2.16002447036765383e-02 -2.10822020763827382e-02
3 1 -1.91574017234696879e-02 -1.36822628566794415e-02 -8.42330883685630735e-03
4 1 3.45033769243986571e-02 4.14040248108263169e-03 2.66160505749901168e-02
5 1 2.60035717914203594e-02 4.54208443407850496e-03 -1.23337735766192915e-02
6 1 -2.54080253810775756e-03 1.95540261589465143e-02 1.51599353239112427e-02
7 1 -1.84334205561067846e-02 -3.91536559377192103e-03 -1.19903262160777364e-02
8 1 -1.80140017671879191e-02 -2.12114804689763764e-02 -8.23948063873692569e-05
8
Step 100
1 1 3.11731662295756679e-03 3.96570171727178653e-03 -1.61114821175424618e-02
2 1 1.94091351853963520e-02 -2.43086535001769133e-02 -2.08186064227244526e-02
3 1 -2.08988020220264858e-02 -1.55196609711807983e-02 -8.44646127470972258e-03
4 1 3.59485061937070555e-02 1.62087084321763369e-03 2.59502249691044087e-02
5 1 2.76879467780339721e-02 1.44149394696277606e-03 -1.44233534384320440e-02
6 1 -8.09074197393482974e-04 2.33134126017660072e-02 1.69818039434517197e-02
7 1 -1.78728148409163790e-02 -2.66011301800594003e-03 -1.48570740932133811e-02
8 1 -1.82509651287362240e-02 -1.82342988551791388e-02 1.60240309828069962e-04
8
Step 110
1 1 6.10991125758488830e-03 3.61669064100646719e-03 -1.76600746565336725e-02
2 1 2.07892376374661375e-02 -2.66184474409896822e-02 -2.03903247459061715e-02
3 1 -2.24899611812494730e-02 -1.70995777413135673e-02 -8.44313554615490867e-03
4 1 3.69083051207245924e-02 -8.83389641885906564e-04 2.52153244525130694e-02
5 1 2.88877126036231856e-02 -1.68766679882347568e-03 -1.63996470251477067e-02
6 1 9.88195209477071628e-04 2.68107510394600124e-02 1.84640287010717150e-02
7 1 -1.72159061280204549e-02 -1.28888749728175967e-03 -1.74363213617900019e-02
8 1 -1.83231018006313022e-02 -1.50472107232590448e-02 4.68127816457860777e-04
8
Step 120
1 1 8.99378484869973495e-03 3.25217825048321153e-03 -1.88899818975213525e-02
2 1 2.18871849765997703e-02 -2.84912800591850326e-02 -1.97951482653849382e-02
3 1 -2.39092419465141773e-02 -1.84000061546218327e-02 -8.41190304444476220e-03
4 1 3.73640167133975007e-02 -3.33427180566909544e-03 2.44165243829256445e-02
5 1 2.95839034893524942e-02 -4.80679176824709391e-03 -1.82354961163986272e-02
6 1 2.82646750909347402e-03 2.99965558478544926e-02 1.95881791143709093e-02
7 1 -1.64799073512213803e-02 1.86484862293207892e-04 -1.96883489034704977e-02
8 1 -1.82224145222605605e-02 -1.16933480750227945e-02 8.45663829294013639e-04
8
Step 130
1 1 1.17290589564310096e-02 2.87107865615819071e-03 -1.97854772926386868e-02
2 1 2.26826252919303528e-02 -2.98965641715249336e-02 -1.90334548592618127e-02
3 1 -2.51370939794249293e-02 -1.94035607378099766e-02 -8.35124457861844555e-03
4 1 3.73051776181099401e-02 -5.69389845954145803e-03 2.35583486915994303e-02
5 1 2.97660194284347680e-02 -7.87655718016954526e-03 -1.99047939695544927e-02
6 1 4.68039551744308790e-03 3.28251149018208566e-02 2.03420578903762347e-02
7 1 -1.56825645188878489e-02 1.75117836664703537e-03 -2.15783857731587612e-02
8 1 -1.79431080389298205e-02 -8.22007783154976059e-03 1.29529279885674527e-03
8
Step 140
1 1 1.42783762603455027e-02 2.47187906611372491e-03 -2.03362294890994388e-02
2 1 2.31604365407027737e-02 -3.08123690719139497e-02 -1.81084584821955517e-02
3 1 -2.61565725584866834e-02 -2.00979446556769914e-02 -8.25968573550705902e-03
4 1 3.67302713189069721e-02 -7.92535739813921176e-03 2.26447309096620315e-02
5 1 2.94325881970460453e-02 -1.08576189266550230e-02 -2.13831534958482082e-02
6 1 6.52424137695371224e-03 3.52555607987481562e-02 2.07201137581576149e-02
7 1 -1.48419329405019267e-02 3.38762460458044918e-03 -2.30775420527760088e-02
8 1 -1.74817932506929515e-02 -4.67833849324733510e-03 1.81740729148642034e-03
8
Step 150
1 1 1.66077301839922739e-02 2.05268329365261831e-03 -2.05376269024406082e-02
2 1 2.33112550107360851e-02 -3.12261345303745698e-02 -1.70263603475680307e-02
3 1 -2.69538119812984464e-02 -2.04762958240356265e-02 -8.13593327774773251e-03
4 1 3.56471509411005333e-02 -9.99360480443852242e-03 2.16790937426737176e-02
5 1 2.85915171634948777e-02 -1.37114388665873655e-02 -2.26485827642908082e-02
6 1 8.33235354289033753e-03 3.72529264913239594e-02 2.07237043854595106e-02
7 1 -1.39761115270143430e-02 5.07588545329822494e-03 -2.41636474303909832e-02
8 1 -1.68376654268440687e-02 -1.12166722375968073e-03 2.41027658012062888e-03
8
Step 160
1 1 1.86872863636301338e-02 1.61126883364098188e-03 -2.03909953237902813e-02
2 1 2.31318597439731342e-02 -3.11351397411971306e-02 -1.57963939112652427e-02
3 1 -2.75184066547308689e-02 -2.05373864890550338e-02 -7.97900739595952709e-03
4 1 3.40731502636023101e-02 -1.18664612859813497e-02 2.06644459049160900e-02
5 1 2.72601683886117066e-02 -1.64011979755511010e-02 -2.36821273667601820e-02
6 1 1.00796856086628524e-02 3.87891299110775245e-02 2.03612024352660854e-02
7 1 -1.31029234027150911e-02 6.79411253022614309e-03 -2.48219210547743034e-02
8 1 -1.60126630772096240e-02 2.39506815470530909e-03 3.07001278481773294e-03
8
Step 170
1 1 2.04921389148923182e-02 1.14514350659670116e-03 -1.99036750454432386e-02
2 1 2.26253755004859926e-02 -3.05466683814956952e-02 -1.44307714432773612e-02
3 1 -2.78436717506236574e-02 -2.02856713282763869e-02 -7.78836325152674515e-03
4 1 3.20348224105297882e-02 -1.35155750608235512e-02 1.96034917658789547e-02
5 1 2.54651050910751180e-02 -1.88927241789013586e-02 -2.44684406730369709e-02
6 1 1.17423369321652919e-02 3.98438142470555617e-02 1.96479301105763823e-02
7 1 -1.22395493727527841e-02 8.51907311319289630e-03 -2.50454183940886782e-02
8 1 -1.50115746467814771e-02 5.81712689797068885e-03 3.79059919224004243e-03
8
Step 180
1 1 2.20029394375880656e-02 6.51612072310214438e-04 -1.90889118357235148e-02
2 1 2.18012711341128429e-02 -2.94778195353058922e-02 -1.29445412209238941e-02
3 1 -2.79267823497112364e-02 -1.97311914537965996e-02 -7.56398871424339425e-03
4 1 2.95672914890480858e-02 -1.49172398837905239e-02 1.84987458958580375e-02
5 1 2.32414888374448507e-02 -2.11553520689067298e-02 -2.49962424496818041e-02
6 1 1.32980854590751974e-02 4.04049539411042505e-02 1.86058857273114324e-02
7 1 -1.14021419256709697e-02 1.02267311665828788e-02 -2.48352192099724652e-02
8 1 -1.38420409435123029e-02 9.09139688356028555e-03 4.56400135823690264e-03
8
Step 190
1 1 2.32063457402757953e-02 1.27869325661072753e-04 -1.79655312740971511e-02
2 1 2.06751478774897975e-02 -2.79549440554215933e-02 -1.13553587647336248e-02
3 1 -2.77688047177316981e-02 -1.88893414293982917e-02 -7.30645947216455958e-03
4 1 2.67132545833354586e-02 -1.60529990761735519e-02 1.73526354761917197e-02
5 1 2.06321465200618170e-02 -2.31626430388920980e-02 -2.52586291940442506e-02
6 1 1.47268737098630725e-02 4.04691496811026008e-02 1.72632321193995457e-02
7 1 -1.06054528183163396e-02 1.18928624105951574e-02 -2.42003348737278301e-02
8 1 -1.25144232365510654e-02 1.21678171923207956e-02 5.38036120852219621e-03
8
Step 200
1 1 2.40952484051254433e-02 -4.28879728766974025e-04 -1.65573989079741309e-02
2 1 1.92683265812801340e-02 -2.60127310110054820e-02 -9.68317120057610517e-03
3 1 -2.73746302205909071e-02 -1.77804966109374671e-02 -7.01693507643916768e-03
4 1 2.35217130588120382e-02 -1.69100052090086564e-02 1.61675628990445679e-02
5 1 1.76863621649861504e-02 -2.48929148402584691e-02 -2.52532104659047470e-02
6 1 1.60112084683353348e-02 4.00415744809849289e-02 1.56535520895799349e-02
7 1 -9.86250057397010209e-03 1.34936673291327167e-02 -2.31573322752162171e-02
8 1 -1.10415415070436260e-02 1.50006358156694625e-02 6.22825701398628962e-03
8
Step 210
1 1 2.46687462367475262e-02 -1.02128771727638115e-03 -1.48927013527548838e-02
2 1 1.76072515221984381e-02 -2.36930125574433999e-02 -7.94981222628363647e-03
3 1 -2.67528084210658136e-02 -1.64294895110778799e-02 -6.69709414184659242e-03
4 1 2.00465355656845694e-02 -1.74811339930718637e-02 1.49459025454727508e-02
5 1 1.44584751900580892e-02 -2.63295517831264696e-02 -2.49820626158954971e-02
6 1 1.71364433411986816e-02 3.91355766666723545e-02 1.38149137992855595e-02
7 1 -9.18429609601141735e-03 1.50063401369800644e-02 -2.17296969526179183e-02
8 1 -9.43831057808630809e-03 1.75494413682895090e-02 7.09500477203968936e-03
8
Step 220
1 1 2.49318640794006924e-02 -1.65173900559072574e-03 -1.30031063668489769e-02
2 1 1.57227357457784198e-02 -2.10433848731381434e-02 -6.17851093674669401e-03
3 1 -2.59152643803712800e-02 -1.48649311729633186e-02 -6.34902940663978343e-03
4 1 1.63449577237717060e-02 -1.77648733885064046e-02 1.36899272542686974e-02
5 1 1.10063823620217792e-02 -2.74610889914566648e-02 -2.44515105571527815e-02
6 1 1.80909267129246674e-02 3.77719828949327832e-02 1.17888131529493411e-02
7 1 -8.57963805643531009e-03 1.64095562147871694e-02 -1.99469836745287434e-02
8 1 -7.72131258430238266e-03 1.97799270884801009e-02 7.96697580729214053e-03
8
Step 230
1 1 2.48950384935163679e-02 -2.32224053916247350e-03 -1.09228704098078711e-02
2 1 1.36490853578693349e-02 -1.81157520555275189e-02 -4.39333419332775185e-03
3 1 -2.48768906450470909e-02 -1.31184009791757046e-02 -5.97513862456508331e-03
4 1 1.24761108625017370e-02 -1.77650235450428108e-02 1.24016902786548370e-02
5 1 7.39004466482907039e-03 -2.82810852067072460e-02 -2.36717661273418041e-02
6 1 1.88660123509705804e-02 3.59781722576774723e-02 9.61906904956667634e-03
7 1 -8.05498370869322904e-03 1.76838515835744704e-02 -1.78438225053142545e-02
8 1 -5.90834739570039909e-03 2.16643679913372557e-02 8.82990810228064839e-03
8
Step 240
1 1 2.45734274858392318e-02 -3.03432887612653567e-03 -8.68796066830077734e-03
2 1 1.14231558293443666e-02 -1.49648917062228434e-02 -2.61860150695888061e-03
3 1 -2.36550286090215847e-02 -1.12235609407473555e-02 -5.57804354475147004e-03
4 1 8.49965537473874357e-03 -1.74902509131092364e-02 1.10829064921873152e-02
5 1 3.67009221675413007e-03 -2.87878175932299862e-02 -2.26564652420881418e-02
6 1 1.94559441077741188e-02 3.37870098722635598e-02 7.35074368337116073e-03
7 1 -7.61439478288861681e-03 1.88118824747051105e-02 -1.54588587332189394e-02
8 1 -4.01800063950577720e-03 2.31818183626649223e-02 9.66919386633194496e-03
8
Step 250
1 1 2.39861181043330950e-02 -3.78898578227996425e-03 -6.33524747926878483e-03
2 1 9.08340314139866045e-03 -1.16471222131930667e-02 -8.78320674719331005e-04
3 1 -2.22688818923708169e-02 -9.21526790262942180e-03 -5.16055139220474024e-03
4 1 4.47457784097882085e-03 -1.69535438869674558e-02 9.73487331254337639e-03
5 1 -9.33990499863638349e-05 -2.89838472033593503e-02 -2.14221532445196990e-02
6 1 1.98576383575620637e-02 3.12357339454825515e-02 5.02914728818900855e-03
7 1 -7.25955263350576679e-03 1.97785684329848319e-02 -1.28337043232275988e-02
8 1 -2.06926250644189113e-03 2.43180626967959002e-02 1.04701325999783258e-02
8
Step 260
1 1 2.31553065125252866e-02 -4.58655373522655774e-03 -3.90180607751969407e-03
2 1 6.66898983511935491e-03 -8.21912769363106026e-03 8.04313750030997672e-04
3 1 -2.07389193782632625e-02 -7.12875192721683197e-03 -4.72565550281422823e-03
4 1 4.58191716964709490e-04 -1.61716184236549362e-02 8.35845578493525122e-03
5 1 -3.84191329666505729e-03 -2.88755128097869865e-02 -1.99877675976677660e-02
6 1 2.00703965008380003e-02 2.83648835827647536e-02 2.69896796378713650e-03
7 1 -6.98983259120855571e-03 2.05711361663504129e-02 -1.00119670728450929e-02
8 1 -8.12202761583607173e-05 2.50653736739576034e-02 1.12181465363006098e-02
8
Step 270
1 1 2.21055129402400671e-02 -5.42664575299642033e-03 -1.42434721987747524e-03
2 1 4.21899111611044424e-03 -4.73697009036744797e-03 2.40733448745374936e-03
3 1 -1.90863223624212139e-02 -4.99890788717913172e-03 -4.27656274589067673e-03
4 1 -3.49464339308986835e-03 -1.51643184941862730e-02 6.95414357958020965e-03
5 1 -7.51926961758541453e-03 -2.84724118891923617e-02 -1.83741597837106287e-02
6 1 2.00955838011310089e-02 2.52173367507817874e-02 4.03545598723008075e-04
7 1 -6.80242510210361112e-03 2.11790912691991288e-02 -7.03840370222998807e-03
8 1 1.92716508961905501e-03 2.54221420704395726e-02 1.18989626101480613e-02
8
Step 280
1 1 2.08628749589632422e-02 -6.30804834705483292e-03 1.06122260489003532e-03
2 1 1.77172411629895237e-03 -1.25529166975835681e-03 3.91032400789221440e-03
3 1 -1.73325140416928855e-02 -2.85972053399391425e-03 -3.81673448202916963e-03
4 1 -7.33209579050234702e-03 -1.39540469620289542e-02 5.52217579651413746e-03
5 1 -1.10721825938014141e-02 -2.77869205404254471e-02 -1.66036856959401943e-02
6 1 1.99363095223398963e-02 2.18375021027370358e-02 -1.81571218733295983e-03
7 1 -6.69249093176460010e-03 2.15941495487670596e-02 -3.95821864396086933e-03
8 1 3.93720081399382554e-03 2.53924440342871913e-02 1.24987707771195312e-02
8
Step 290
1 1 1.94545421754712435e-02 -7.22862038435754823e-03 3.52012675528824313e-03
2 1 -6.35799450000033807e-04 2.17331169280122680e-03 5.29465829373262573e-03
3 1 -1.54987886469313083e-02 -7.43819091607985684e-04 -3.34993053995989980e-03
4 1 -1.10057638431929426e-02 -1.25652489455879823e-02 4.06272230676556299e-03
5 1 -1.44506494649085642e-02 -2.68337906099277608e-02 -1.46998784701343997e-02
6 1 1.95971374098423759e-02 1.82706796822339895e-02 -3.91979139167193767e-03
7 1 -6.65333926458712855e-03 2.18101586883303333e-02 -8.16505951022310087e-04
8 1 5.93053624609259783e-03 2.49856017710449602e-02 1.30043716740074079e-02
8
Step 300
1 1 1.79081770842689503e-02 -8.18519360379262040e-03 5.91895676004488159e-03
2 1 -2.96831527482743643e-03 5.49878253039835698e-03 6.54369426820175255e-03
3 1 -1.36060384951237727e-02 1.31785988545536875e-03 -2.88024855481847216e-03
4 1 -1.44709546987361604e-02 -1.10239550774313706e-02 2.57610614338210078e-03
5 1 -1.76082196622756836e-02 -2.56298447630352762e-02 -1.26872022524561548e-02
6 1 1.90838464534884740e-02 1.45625789123640416e-02 -5.87244048894079110e-03
7 1 -6.67662038527664422e-03 2.18230352320881275e-02 2.34218830563845837e-03
8 1 7.88919020794792876e-03 2.42157771293971084e-02 1.34033269364014634e-02
8
Step 310
1 1 1.62515523524651463e-02 -9.17348239848890870e-03 8.22585625209964685e-03
2 1 -5.19267168777604992e-03 8.67400334262361655e-03 7.64292513372895940e-03
3 1 -1.16745635257593273e-02 3.29633170946211926e-03 -2.41215278676361377e-03
4 1 -1.76868904255209729e-02 -9.35737990064826157e-03 1.06304873524829240e-03
5 1 -2.05022070699275999e-02 -2.41937712584842368e-02 -1.05908719603483754e-02
6 1 1.84032513708398994e-02 1.07589618267141651e-02 -7.64048059399090231e-03
7 1 -6.75252802498793082e-03 2.16307329937861295e-02 5.47421871721341571e-03
8 1 9.79555666734909132e-03 2.31016176397915475e-02 1.36841232057713213e-02
8
Step 320
1 1 1.45122251701275910e-02 -1.01880113277251719e-02 1.04106833735481980e-02
2 1 -7.27814902139547418e-03 1.16551514188409783e-02 8.58012374747425637e-03
3 1 -9.72394038052227724e-03 5.16477657618383962e-03 -1.95048746180073165e-03
4 1 -2.06168849186297992e-02 -7.59356366980060843e-03 -4.75082311864118015e-04
5 1 -2.30939003116414042e-02 -2.25460019805425842e-02 -8.43671395810988677e-03
6 1 1.75630819161917938e-02 6.90536754351397421e-03 -9.19408744690435042e-03
7 1 -6.87000960714346208e-03 2.12332488651802223e-02 8.53714865376278310e-03
8 1 1.16324132220583191e-02 2.16659550255480331e-02 1.38363566561860076e-02
8
Step 330
1 1 1.27172647292134212e-02 -1.12220687382574725e-02 1.24451793526815669e-02
2 1 -9.19675942770931294e-03 1.44020427586781796e-02 9.34548643863818834e-03
3 1 -7.77292618856276554e-03 6.89873370420328574e-03 -1.50047033801103459e-03
4 1 -2.32285212388558537e-02 -5.76104483848003356e-03 -2.03604478033075995e-03
5 1 -2.53488127030564274e-02 -2.07086419595671409e-02 -6.25103646965041032e-03
6 1 1.65719109592275538e-02 3.04687098074776395e-03 -1.05070673497037054e-02
7 1 -7.01698491050940266e-03 2.06326623441269279e-02 1.14900514254135579e-02
8 1 1.33829532176846927e-02 1.99355400494523466e-02 1.38509396736496999e-02
8
Step 340
1 1 1.08930089942201151e-02 -1.22676939205942481e-02 1.43031621697905249e-02
2 1 -1.09235443809377331e-02 1.68784880518540077e-02 9.93178051271318210e-03
3 1 -5.83937467011547574e-03 8.47629565515674137e-03 -1.06766301322173095e-03
4 1 -2.54938442730928347e-02 -3.88855369497584889e-03 -3.61653487358829396e-03
5 1 -2.72369927328122569e-02 -1.87054086990168997e-02 -4.06047720260551553e-03
6 1 1.54391138886100787e-02 -7.72166367184857084e-04 -1.15571380687732525e-02
7 1 -7.18057472985451570e-03 1.98331971886526390e-02 1.42938335611807344e-02
8 1 1.50308566387681568e-02 1.79407865377703632e-02 1.37203260538608252e-02
8
Step 350
1 1 9.06483076173283074e-03 -1.33157034864152726e-02 1.59607536508499723e-02
2 1 -1.24368760277986101e-02 1.90526686983321161e-02 1.03344897462638776e-02
3 1 -3.94014752753186429e-03 9.87831194656053554e-03 -6.57915581535259745e-04
4 1 -2.73895717988803730e-02 -2.00472119473733747e-03 -5.21206100532252154e-03
5 1 -2.87333910612995319e-02 -1.65615378673821326e-02 -1.89179983761525949e-03
6 1 1.41748371835631638e-02 -4.50838535824599814e-03 -1.23262143191283299e-02
7 1 -7.34734092312278649e-03 1.88412882118308700e-02 1.69115972573176572e-02
8 1 1.65604084846003342e-02 1.57154921646611642e-02 1.34387464242443026e-02
8
Step 360
1 1 7.25689932352419857e-03 -1.43557602607076590e-02 1.73966377063935924e-02
2 1 -1.37187576809894001e-02 2.08975264856875627e-02 1.05519446608771540e-02
3 1 -2.09101100535567970e-03 1.10886011905793579e-02 -2.77284524278619362e-04
4 1 -2.88973194469865358e-02 -1.37797818304742891e-04 -6.81689050179025684e-03
5 1 -2.98182568754534888e-02 -1.43036196955714182e-02 2.28379308356765648e-04
6 1 1.27899539320716991e-02 -8.11977642925254192e-03 -1.28006876525567533e-02
7 1 -7.50353801115549463e-03 1.76656337141204399e-02 1.93090458187522747e-02
8 1 1.79566669709839422e-02 1.32965041731171567e-02 1.30024417082232630e-02
8
Step 370
1 1 5.49193152684722581e-03 -1.53764851302669644e-02 1.85923382037827996e-02
2 1 -1.47551097956523606e-02 2.23911488701108094e-02 1.05854193748428395e-02
3 1 -3.06514846302106600e-04 1.20941625067989226e-02 6.80760313660179678e-05
4 1 -3.00038299796092124e-02 1.68462492400321250e-03 -8.42407073843712793e-03
5 1 -3.04775222100224161e-02 -1.19593464009680565e-02 2.27393977748381127e-03
6 1 1.12959912748678212e-02 -1.15660905256309513e-02 -1.29716833027437306e-02
7 1 -7.63537459758978701e-03 1.63172144023603569e-02 2.14549233952326841e-02
8 1 1.92056772172366184e-02 1.07233050091907513e-02 1.24098789591973822e-02
8
Step 380
1 1 3.79093345772682369e-03 -1.63656092402453858e-02 1.95324981611928877e-02
2 1 -1.55360217695334826e-02 2.35171238770968301e-02 1.04391754618655633e-02
3 1 1.40014220389234273e-03 1.28853707088897491e-02 3.72048589950753491e-04
4 1 -3.07011920016635326e-02 3.43590004561289278e-03 -1.00255153198266309e-02
5 1 -3.07031312481522850e-02 -9.55717136249041761e-03 4.21967184585331483e-03
6 1 9.70502937690074889e-03 -1.48093076438800646e-02 -1.28352718132057897e-02
7 1 -7.72928069613076224e-03 1.48092625576776524e-02 2.33214699547130457e-02
8 1 2.02947177131200945e-02 8.03750620250836406e-03 1.16619307051007409e-02
8
Step 390
1 1 2.17294037097714044e-03 -1.73101610022550999e-02 2.02051382051935922e-02
2 1 -1.60559469942647137e-02 2.42648346897824073e-02 1.01204357883899736e-02
3 1 3.01725026734706156e-03 1.34561361144997262e-02 6.28710470593814015e-04
4 1 -3.09870264345412059e-02 5.09062611608688664e-03 -1.16121389725977204e-02
5 1 -3.04932789095838999e-02 -7.12589989702879043e-03 6.04173693369017620e-03
6 1 8.02958699335829494e-03 -1.78141470310145822e-02 -1.23926109925800512e-02
7 1 -7.77217500418741266e-03 1.31571701331089797e-02 2.48848652951542196e-02
8 1 2.12125570118238058e-02 5.28225652880854896e-03 1.07619976891115965e-02
8
Step 400
1 1 6.54767133711806385e-04 -1.81966799241466588e-02 2.06018717720356792e-02
2 1 -1.63138181798600131e-02 2.46296645274453989e-02 9.63927651008049217e-03
3 1 4.53471504668750188e-03 1.38040086789520625e-02 8.32513820469235740e-04
4 1 -3.08646129624975535e-02 6.62496557888726106e-03 -1.31740239913468223e-02
5 1 -2.98525311337106899e-02 -4.69424273899787282e-03 7.71814465714523983e-03
6 1 6.28251400523983840e-03 -2.05485940871158075e-02 -1.16499946994308677e-02
7 1 -7.75172465834162057e-03 1.13783306608226005e-02 2.61256326486438289e-02
8 1 2.19496912614073197e-02 2.50158599763802879e-03 9.71605842857458345e-03
8
Step 410
1 1 -7.49216109393763610e-04 -1.90114476345508050e-02 2.07180572215628390e-02
2 1 -1.63130620368123723e-02 2.46130884908531203e-02 9.00843232694946427e-03
3 1 5.94415671401752731e-03 1.39302072597221899e-02 9.78483648783710826e-04
4 1 -3.03429278027023581e-02 8.01697287925741409e-03 -1.47006038970044373e-02
5 1 -2.87918047065231254e-02 -2.29036404034844293e-03 9.22921407635330510e-03
6 1 4.47690270511776414e-03 -2.29844118542887367e-02 -1.06187903560064512e-02
7 1 -7.65658935463009015e-03 9.49191648212731678e-03 2.70289733024327884e-02
8 1 2.24985350180188538e-02 -2.60285901607395153e-04 8.53263784682700005e-03
8
Step 420
1 1 -2.02726827531040906e-03 -1.97407259147289599e-02 2.05528723855718937e-02
2 1 -1.60614984741192443e-02 2.42226401352232390e-02 8.24302047142394002e-03
3 1 7.23896641728785390e-03 1.38395586050029003e-02 1.06242482536279955e-03
4 1 -2.94365704599807015e-02 9.24691827999291061e-03 -1.61808521419531393e-02
5 1 -2.73281916597446911e-02 5.85496737450668422e-05 1.05579865682830960e-02
6 1 2.62601567410548952e-03 -2.50976023417498924e-02 -9.31525660671842469e-03
7 1 -7.47664202896954067e-03 7.51859898712052728e-03 2.75850083351301713e-02
8 1 2.28535483054323404e-02 -2.95965090900928308e-03 7.22269786232781087e-03
8
Step 430
1 1 -3.17040908458076634e-03 -2.03709921503494942e-02 2.01093042252497890e-02
2 1 -1.55711213764226902e-02 2.34717524056745203e-02 7.36020379986524267e-03
3 1 8.41431418102388945e-03 1.35403386841539252e-02 1.08112003124560319e-03
4 1 -2.81655672363267905e-02 1.02975914196439065e-02 -1.76034647402351398e-02
5 1 -2.54846268189906668e-02 2.32667921796045514e-03 1.16905608030505089e-02
6 1 7.43218810982595448e-04 -2.68687862408905527e-02 -7.76024387573610169e-03
7 1 -7.20315951261618192e-03 5.48022446660765584e-03 2.77889112043075565e-02
8 1 2.30112964716850284e-02 -5.55400004550116611e-03 5.79946121599241374e-03
8
Step 440
1 1 -4.17248946548535657e-03 -2.08891642190085214e-02 1.93940539793173439e-02
2 1 -1.48577740791410277e-02 2.23794797018141457e-02 6.37882610246130657e-03
3 1 9.46711466989795525e-03 1.30440218971561144e-02 1.03249400119527729e-03
4 1 -2.65550492086399671e-02 1.11545691547692873e-02 -1.89570287272923105e-02
5 1 -2.32894148680455361e-02 4.48990727769403748e-03 1.26163285352661764e-02
6 1 -1.15809352628180829e-03 -2.82834776872515174e-02 -5.97879102963303540e-03
7 1 -6.82897851694596377e-03 3.39946127148220206e-03 2.76409242867534828e-02
8 1 2.29704504885827436e-02 -8.00268206623524180e-03 4.27818439805578016e-03
8
Step 450
1 1 -5.03019650899753576e-03 -2.12828091087265796e-02 1.84173650680447068e-02
2 1 -1.39407456374764215e-02 2.09701094347166869e-02 5.31905180240280825e-03
3 1 1.03959662930144664e-02 1.23649574486643932e-02 9.15724334790133363e-04
4 1 -2.46348120054230534e-02 1.18064328256491380e-02 -2.02301743208908383e-02
5 1 -2.07756484571470848e-02 6.52609238522057055e-03 1.33281038202540357e-02
6 1 -3.06458895180216620e-03 -2.93322415013456059e-02 -3.99963887149305548e-03
7 1 -6.34861465220028752e-03 1.29943498498868840e-03 2.71462620936838567e-02
8 1 2.27317412361481008e-02 -1.02675181980842189e-02 2.67589645958883149e-03
8
Step 460
1 1 -5.74299337345425976e-03 -2.15403321994929765e-02 1.71927861145734634e-02
2 1 -1.28423167021061799e-02 1.92726729079208681e-02 4.20202647054069341e-03
3 1 1.12010773405290288e-02 1.15199991664924600e-02 7.31295375721595733e-04
4 1 -2.24387751418616381e-02 1.22449220729546927e-02 -2.14117143712926478e-02
5 1 -1.79805560151225889e-02 8.41528554902030296e-03 1.38221533824221636e-02
6 1 -4.96310081607474144e-03 -3.00107317595456717e-02 -1.85468464647668111e-03
7 1 -5.75834457267280359e-03 -7.96632685950888781e-04 2.63149122902163850e-02
8 1 2.22978820518092667e-02 -1.23133605396045769e-02 1.01111866965765906e-03
8
Step 470
1 1 -6.31299848710145661e-03 -2.16511468419224688e-02 1.57368844290498300e-02
2 1 -1.15872774827215606e-02 1.73203707939424134e-02 3.04955772256085928e-03
3 1 1.18841836094310156e-02 1.05281122831090684e-02 4.81005954052071455e-04
4 1 -2.00043684369442497e-02 1.24650174046579635e-02 -2.24907770374028829e-02