8
Step 0
1 1 -1.617009810547e+02   3.499836431780e+02   9.670322036942e+01 
2 1  6.579416937860e+01   2.280060486291e+02  -1.582839607652e+02 
3 1 -6.135575297045e+01   6.867441165061e+01  -2.235871020339e+01 
4 1  3.367717746942e+02   6.945229931662e+01   5.895565159453e+02 
5 1 -1.941750986483e+02  -3.959948441136e+02   1.451362027938e+02 
6 1 -3.561674960723e+02   2.371270333453e+02   4.390690026849e+01 
7 1  6.398257805213e+01  -3.981415810091e+02  -1.052703156695e+02 
8 1  3.094942320484e+02  -9.294175695775e+01   8.728695809416e+00 
8
Step 100
1 1  2.079968451525e+02   6.752631930973e+02   1.676167214117e+02 
2 1  1.156975525455e+02   4.545259094078e+02  -7.557538973489e+01 
3 1  6.929429793560e+01  -4.399558731901e+02  -1.358010826638e+02 
4 1  6.532457921746e+01   6.472328643748e+01  -4.339089691736e+02 
5 1 -3.039010192300e+02  -8.853289556118e+02   8.384371402262e+02 
6 1 -1.496682107981e+02   1.740313045288e+02   4.326196793373e+02 
7 1  3.906251324015e+02  -4.364616874694e+02   1.358200913131e+02 
8 1 -1.555267151874e+02   7.534994361047e+02   2.249254805390e+02 
8
Step 200
1 1  3.916204235869e+02   3.592027828302e+02  -3.429836714294e+01 
2 1 -1.155119283535e+02   2.213052989822e+02  -2.952102237130e+01 
3 1 -1.155058112098e+01  -1.890227211854e+02  -2.646153298942e+02 
4 1 -1.637207019082e+02  -2.104408349396e+02  -5.735943265667e+02 
5 1 -1.773921528838e+02  -2.489136566250e+02   3.609843423216e+02 
6 1 -6.176112502602e+01   1.961091773811e+02   2.166657366320e+02 
7 1  3.440348840209e+02  -1.328496990989e+02   1.346096417747e+02 
8 1 -3.380368484522e+02   7.145951225653e+02   1.996465246086e+02 
8
Step 300
1 1  1.407302685011e+02  -1.566246804006e+02  -3.357959195377e+02 
2 1 -2.897813145297e+02  -3.394229270038e+02   5.611653374013e+01 
3 1 -2.750954261859e+02   4.168701479749e+02  -7.697394679014e+01 
4 1 -1.815544221456e+02  -4.756453926396e+02   1.816589212456e+02 
5 1  1.689407952458e+02   7.005740799605e+02  -5.773531224082e+02 
6 1  3.415498140324e+01   8.471008263525e+01  -2.891684357956e+02 
7 1  4.897988843608e+01   9.684649267715e+01  -7.279369307707e+01 
8 1 -2.520700304664e+02  -1.818318958483e+02  -2.292712826068e+01 
8
Step 400
1 1 -2.208089641027e+02  -3.776136038194e+02  -3.264590184604e+02 
2 1 -9.629714503813e+01  -7.002595222436e+02   9.450787905157e+01 
3 1 -3.655795422999e+02   5.008939741196e+02   2.848222436741e+02 
4 1 -1.152847822732e+02  -3.235236094802e+02   6.074461055011e+02 
5 1  4.295589679235e+02   7.650195660664e+02  -7.309215068398e+02 
6 1  2.735561230922e+02  -2.742228102490e+02  -3.390318786458e+02 
7 1 -1.354097611260e+02   5.449361532007e+01  -1.568092543577e+02 
8 1 -1.513267800687e+02  -8.779247325075e+02  -2.268871509542e+02 
8
Step 500
1 1 -3.260601823643e+02  -2.237615637186e+02   3.678028727665e+01 
2 1  2.787114176409e+02  -4.366249580324e+02  -1.164231491954e+01 
3 1 -1.174390377705e+02  -6.915610497383e+01   3.912548408935e+02 
4 1 -1.172744166092e+02   2.006974304791e+02   6.851529592692e+01 
5 1  3.117976628594e+02  -8.143167644375e+01  -7.102324411042e+00 
6 1  4.199085865346e+02  -5.868143540211e+02   1.560052656026e+02 
7 1 -9.567046467516e+01  -3.037219263911e+01   4.157837764680e+01 
8 1 -1.476459979659e+02  -6.260525062976e+02  -2.250949416164e+02 
8
Step 600
1 1 -2.227908771106e+02   1.166610064928e+01   3.206294589797e+02 
2 1  3.807842288495e+02   2.421918924393e+02  -1.486194053036e+02 
3 1  2.029886652074e+02  -5.607511992376e+02   1.507286008687e+02 
4 1 -1.369582529743e+02   5.879775155247e+02  -6.771810705383e+02 
5 1 -7.455845853179e+01  -7.427391797613e+02   5.484474315595e+02 
6 1  1.889485582382e+02  -4.927094037162e+02   5.178618318894e+02 
7 1 -5.114098764334e+01   1.004369496217e+02   2.934988009000e+02 
8 1 -1.376150442783e+02   1.326122343172e+02  -2.360757785164e+01 
8
Step 700
1 1 -1.240061230292e+02   9.450057677389e+01   1.720512051073e+02 
2 1  8.717570460012e+01   7.079310954783e+02  -1.014463451202e+02 
3 1  2.722193963172e+02  -4.111966827634e+02  -1.071812070378e+02 
4 1 -1.018248501224e+01   4.386246844450e+02  -6.753487158889e+02 
5 1 -3.474303381366e+02  -4.876721766867e+02   2.780717233743e+02 
6 1 -2.962097248948e+02  -2.093296496482e+00   2.516026095033e+02 
7 1 -1.705370591883e+02   3.466324760482e+02   2.829026449999e+02 
8 1  3.197686732182e+00   5.394602318862e+02   2.214799868576e+02 
8
Step 800
1 1 -6.245632347422e+01   1.576068968517e+01  -2.451699230267e+02 
2 1 -2.211969709173e+02   4.892730471643e+02   1.576732107096e+02 
3 1  7.988027704962e+01   1.130217864511e+02  -6.999456912747e+01 
4 1  2.319138782844e+02  -1.048842737048e+02  -1.699273023472e+01 
5 1 -2.325353089406e+02   2.630344970226e+02  -3.365447891651e+02 
6 1 -5.063461129801e+02   4.052479066962e+02  -3.222822073846e+02 
7 1 -3.200080544985e+02   3.999672606549e+02  -2.112853479066e+00 
8 1  2.105252535983e+02   3.077829132914e+02   3.025926691390e+02 
8
Step 900
1 1  8.545988233242e+01  -8.815629712914e+01  -4.215363482564e+02 
2 1 -1.698837623467e+02  -1.756001167950e+02   3.888845987693e+02 
3 1 -8.941932874375e+01   3.318479371102e+02   1.133216229139e+02 
4 1  3.184689717035e+02  -5.018816336241e+02   3.920384674807e+02 
5 1  1.159971377049e+02   5.808286461822e+02  -4.171010986247e+02 
6 1 -1.575104983244e+02   3.183201635257e+02  -5.051980021966e+02 
7 1 -2.286143595986e+02   1.628672397600e+02  -2.482669714147e+02 
8 1  3.109669595386e+02  -5.468663348998e+01   1.438304362522e+02 
8
Step 1000
1 1  2.804958674635e+02  -1.080957415577e+02  -1.139285204717e+02 
2 1  1.103959772031e+02  -5.578118859206e+02   3.459894739605e+02 
3 1 -3.784391661552e+01   5.200916811377e+01   5.025083823754e+01 
4 1  6.685730383949e+01  -3.804916569563e+02   1.221403555956e+02 
5 1  2.899444208104e+02   2.065527446669e+02   1.305687149849e+02 
6 1  3.668593668940e+02  -1.123195896199e+02  -1.216859783160e+02 
7 1  1.387526758340e+02  -1.454315177376e+02  -2.002864491538e+02 
8 1  2.271487653951e+02  -3.788614550894e+01  -1.166257883471e+02 
8
Step 1100
1 1  2.746891836515e+02  -2.953277802241e+01   3.406671475410e+02 
2 1  1.760654019931e+02  -2.600359341961e+02   6.294777959213e+01 
3 1  1.226243594772e+02  -2.445832930102e+02  -2.966624898885e+02 
4 1 -3.055181203869e+02   8.712078791124e+01  -2.562837693827e+02 
5 1  1.122672234470e+02  -2.372916908353e+02   5.595042871198e+02 
6 1  4.421160957078e+02  -3.446338851671e+02   2.946793391782e+02 
7 1  4.792002388994e+02  -2.895983391410e+02   2.212753297572e+01 
8 1  4.643764406412e+01   1.973568216502e+02  -2.481477749878e+02 
8
Step 1200
1 1 -3.214640446959e+01   1.116940658997e+02   4.286401645744e+02 
2 1 -9.959351030346e+01   3.197868067073e+02  -2.162720652898e+02 
3 1  1.678845079846e+02  -1.161698350705e+02  -4.796045499243e+02 
4 1 -3.656603235805e+02   4.103289887110e+02  -7.488530596352e+01 
5 1 -1.719275462873e+02  -1.868726340077e+02   3.270432593167e+02 
6 1 -1.393946811150e+01  -9.593422743775e+01   2.425806213667e+02 
7 1  4.690630660477e+02  -2.777399229887e+02   9.092999861687e+01 
8 1 -1.173403018076e+02   1.436775094311e+02  -1.593280724388e+02 
8
Step 1300
1 1 -3.356497992996e+02   2.521779334507e+02   7.507735608300e+01 
2 1 -3.392333583097e+02   4.595916584407e+02  -3.091198740230e+02 
3 1  6.080922648671e+01   2.489176518144e+02  -1.437481250866e+02 
4 1  9.479118128545e+00   2.930149882186e+02   4.597849456369e+02 
5 1 -2.183943091403e+02   1.317148612426e+02  -2.227417132080e+02 
6 1 -4.151614960063e+02   3.356708170324e+02  -1.269926341425e+02 
7 1  1.188529785900e+02  -2.348819380897e+02  -9.935975835696e+01 
8 1 -2.100057513754e+02  -2.424426236655e+02   1.694896726597e+01 
8
Step 1400
1 1 -2.466879390576e+02   2.949140930190e+02  -2.809216174281e+02 
2 1 -1.907802163442e+02  -1.494786535015e+00  -2.390372619931e+02 
3 1 -5.472517206477e+01   3.403319783137e+02   4.384073554606e+02 
4 1  4.149470908591e+02  -9.087950964337e+01   5.821506139391e+02 
5 1 -9.396097364024e+00   1.277505078027e+02  -4.051629295093e+02 
6 1 -2.584184624494e+02   4.574460207078e+02  -2.882215570236e+02 
7 1 -2.553453182460e+02  -1.539384865567e+02  -2.740398480811e+02 
8 1 -2.081348545381e+02  -4.386644786037e+02   9.516552429049e+01 
8
Step 1500
1 1  1.823773651430e+02   1.514575500706e+02  -2.318272208650e+02 
2 1  1.719454378322e+02  -4.811631205268e+02  -1.140403683296e+02 
3 1 -9.632312093239e+01   4.629104250601e+01   6.251805721856e+02 
4 1  3.596115337566e+02  -3.240194439867e+02   7.990093467763e+01 
5 1  1.644052010418e+02  -2.454594578427e+02  -1.237089897742e+02 
6 1  2.249187297569e+02   1.668824339949e+02  -6.449936772676e+01 
7 1 -3.700751969986e+02   4.568433781231e+01  -1.271879757316e+02 
8 1 -8.850985675995e+01  -1.182206274499e+02   5.261470228936e+01 
8
Step 1600
1 1  4.565271611544e+02  -1.457032759613e+02   1.037467810339e+02 
2 1  2.904422738259e+02  -4.091608081770e+02   1.041369750228e+01 
3 1 -1.385545216696e+02  -2.189259001563e+02   1.990065358521e+02 
4 1 -1.074930539010e+02  -1.978632272779e+02  -3.971149264909e+02 
5 1  1.069179483615e+02  -4.146654522844e+02   9.546235665672e+01 
6 1  3.783951112464e+02  -1.718815435882e+02   1.945462242148e+02 
7 1 -2.300996728074e+02   2.641742996036e+02   2.485144116965e+02 
8 1  1.060140552609e+02   3.187774679955e+02   1.740769896078e+01 
8
Step 1700
1 1  2.377992194672e+02  -4.047031623607e+02   2.682777802976e+02 
2 1  6.711392349268e+01   6.859794068553e+01   1.092072884156e+02 
3 1 -2.284023681411e+02  -1.357851632353e+02  -3.616167413871e+02 
4 1 -4.280655716647e+02   1.064044052292e+02  -2.792434176098e+02 
5 1 -5.343679024340e+01  -3.368040354012e+01  -4.862074315024e+01 
6 1 -1.519129195450e+00  -2.251207816283e+02   1.698178652930e+02 
7 1 -2.582254417828e+01   2.503356804004e+02   4.394148039278e+02 
8 1  2.272517979244e+02   2.718778962590e+02   4.794460818013e+01 
8
Step 1800
1 1 -2.382848016612e+02  -3.950220473083e+02   5.775409144627e+01 
2 1 -1.217115240929e+02   3.412562058635e+02   1.068737082749e+02 
3 1 -2.442532736671e+02   9.125655976250e+01  -4.581808138590e+02 
4 1 -2.073836945831e+02   2.515896309447e+02   1.390697405212e+02 
5 1 -8.775203156544e+01   4.849593205672e+02  -2.126125477829e+02 
6 1 -4.050758119411e+02  -6.022573744142e+01  -3.539974052596e+00 
7 1  1.001410105115e+02  -3.875524939120e+01   2.116450334578e+02 
8 1  1.287654381207e+02  -2.148314774119e+02   4.144215418937e+01 
8
Step 1900
1 1 -4.529924703218e+02  -7.818568593885e+01  -2.386494592687e+02 
2 1  1.077914507000e+01   1.541267742057e+02  -3.246280968290e+01 
3 1 -4.770871944985e+01   7.016854376704e+01  -7.239567904336e+01 
4 1  2.781425789717e+02   9.762169642503e+01   1.555591488911e+02 
5 1  1.296031753772e+01   4.969710225302e+02   1.764666564566e+01 
6 1 -2.889253854945e+02   1.683914087453e+01  -4.012862530105e+00 
7 1  1.337405665840e+02  -2.649503543298e+02  -1.847229459864e+02 
8 1 -1.445209038754e+02  -4.620666855682e+02  -8.559920157127e+01 
8
Step 2000
1 1 -2.217181561119e+02   2.913674878037e+02  -2.387307562083e+02 
2 1  2.353582145901e+02  -1.015692578879e+02  -1.670973479368e+02 
3 1  2.672013751346e+02  -1.867729789079e+02   2.693486386695e+02 
4 1  3.964572360324e+02  -1.773380142386e+02  -3.111208430712e+02 
5 1  5.651129603962e+01  -2.231075369454e+01   4.341435998877e+02 
6 1  2.088915074991e+02  -1.226628151420e+02   1.656827456823e+02 
7 1  1.039009035866e+02  -7.821576844930e+01  -3.055778639727e+02 
8 1 -3.235130454435e+02  -5.926595455291e+01  -2.088850690700e+02 
8
Step 2100
1 1  1.397987457445e+02   3.673880154565e+02   3.253157591270e+01 
2 1  1.404319810664e+02   8.320287758401e+00  -7.276146162554e+01 
3 1  4.105821262272e+02  -2.784060497830e+02   1.798613743341e+02 
4 1 -5.472878982801e+01  -2.778431715546e+02  -5.923465737691e+02 
5 1 -4.868125685743e+01  -4.599108151501e+02   4.371366252937e+02 
6 1  4.570846690746e+02  -2.968386372862e+02   1.815031149841e+02 
7 1  2.228831143300e+01   3.843329552578e+02  -5.142089014052e+01 
8 1 -1.601576988652e+02   5.401190630638e+02  -1.162510414465e+02 
8
Step 2200
1 1  2.389317674477e+02   5.568061906474e+01   1.922065877163e+02 
2 1 -2.416964151042e+02   3.241639882670e+02   2.573344909434e+02 
3 1  2.212776183652e+02  -6.843022713034e+00  -1.476943476793e+02 
4 1 -5.558632176609e+02  -8.361144002873e+01  -2.102986127569e+02 
5 1 -1.515308677738e+02  -3.480858219178e+02  -1.080497143164e+02 
6 1  1.483152141057e+02  -2.646869612936e+02  -1.045321927053e+02 
7 1 -6.902115309765e+01   5.587956152358e+02   2.133399192362e+02 
8 1  2.640470382556e+02   5.476433934404e+02   1.786439860147e+02 
8
Step 2300
1 1  5.676291565883e+01  -3.276021756541e+02   1.954226124291e+01 
2 1 -4.166836004331e+02   2.957817315343e+02   5.031993853670e+02 
3 1 -1.034886787298e+02   2.961100236713e+02  -2.415198068818e+02 
4 1 -4.714759876869e+02   2.236859500273e+02   4.060264163768e+02 
5 1 -6.883219483819e+01   6.371937354219e+01  -5.730726825952e+02 
6 1 -3.007187843144e+02  -1.026792482146e+01  -3.925409169305e+02 
7 1 -8.168973283231e+01   1.273950386886e+02   1.171734766042e+02 
8 1  5.304085161256e+02  -1.074737283655e+02   3.667040054263e+02 
8
Step 2400
1 1 -1.235789015445e+02  -3.431185227275e+02  -2.351767173446e+02 
2 1 -1.077017071833e+02  -2.191679999900e+02   3.430503546786e+02 
3 1 -2.232297558493e+02   2.217143723052e+02   1.757201998009e+01 
4 1  1.518438032342e+02   3.420688258034e+02   4.920905767801e+02 
5 1  1.388691088302e+02   2.051242299751e+02  -3.464314629336e+02 
6 1 -3.144889552265e+02   2.693257470960e+02  -3.132838146631e+02 
7 1  1.616666756226e+01  -5.246840519291e+02  -2.296738610123e+02 
8 1  2.991181818974e+02  -6.212266387756e+02   1.934468269532e+02 
8
Step 2500
1 1 -1.210419991186e+02   9.046871566790e+01  -1.740028312812e+02 
2 1  3.043803077403e+02  -6.577621699402e+02  -1.323955316674e+02 
3 1 -4.703342640889e+01  -1.221970200492e+02   2.725610082903e+02 
4 1  6.074543306140e+02   1.571831638314e+02   1.714093458876e+01 
5 1  2.257257746471e+02  -3.011887857679e+01   3.208547354976e+02 
6 1  8.043827298526e+01   3.825703013409e+02   5.603894524879e+01 
7 1  1.169403383288e+02  -7.005233044800e+02  -3.568301630405e+02 
8 1 -2.786872738361e+02  -3.240751518948e+02  -1.885318833925e+02 
8
Step 2600
1 1 -1.336836719997e+01   5.459314725172e+02   2.039336277954e+02 
2 1  2.606890193594e+02  -4.404576979006e+02  -4.755833377421e+02 
3 1  1.675371518909e+02  -2.340173877873e+02   1.960254116152e+02 
4 1  4.035722730669e+02  -1.461044627090e+02  -2.570212844061e+02 
5 1  8.491561735056e+01  -1.758610697999e+02   5.753612515278e+02 
6 1  3.088315684159e+02   2.978663002347e+02   2.732272657669e+02 
7 1  7.847356445134e+01  -2.230251860755e+02  -4.456617476296e+01 
8 1 -6.595305828980e+02   4.167833795480e+02  -3.623944761061e+02 
8
Step 2700
1 1  9.069904002384e+01   5.020494267662e+02   4.610873513108e+02 
2 1 -1.779054350223e+02   2.230123534296e+02  -3.933369705010e+02 
3 1  1.341608325751e+02   6.475312472653e+01  -8.865588870264e+01 
4 1 -1.196558132204e+02  -2.780368144123e+02   1.316158969100e+02 
5 1 -1.043524765582e+02   9.216227911699e+01   6.064975855467e+01 
6 1  4.667025466932e+01   1.175891393167e+02   1.202733707329e+02 
7 1 -7.687887161982e+01   3.398144142146e+02   3.512648354591e+02 
8 1 -4.611957345210e+02   6.340990573845e+02  -1.512989625887e+02 
8
Step 2800
1 1  2.239421161228e+02  -6.238759716778e+01   2.785545954913e+02 
2 1 -3.651407074462e+02   5.540442616129e+02  -9.693252745589e+01 
3 1 -1.149318653846e+02   3.206982670055e+02  -2.111161604455e+02 
4 1 -2.711435136872e+02  -1.386947483352e+02   6.268457788878e+02 
5 1 -1.262530279830e+02   4.383410780016e+02  -5.839788616854e+02 
6 1 -3.221416715009e+02  -2.759539020045e+01  -1.138704501442e+02 
7 1 -1.543309780538e+02   3.854393673431e+02   3.361326736710e+02 
8 1  1.146113716460e+02   4.437875502429e+01   1.518551242707e+02 
8
Step 2900
1 1  3.771112224652e+02  -6.157418723743e+02  -1.400123712506e+02 
2 1  2.194345541908e+01   2.271747018217e+02   2.174746619971e+01 
3 1 -3.032100341763e+02   8.421973603503e+01  -6.117287869628e+01 
4 1  4.523215100973e+01   1.100135111260e+02   4.176496822481e+02 
5 1 -2.348449754220e+01   3.237062837439e+02  -5.577491910660e+02 
6 1 -2.526969928362e+02  -7.360356282520e+01  -7.861499895314e+01 
7 1 -3.451051536987e+01  -3.946719937259e+00  -6.993002916107e+01 
8 1  5.297700063610e+02  -5.974937103112e+02   1.779879917231e+02 
8
Step 3000
1 1  3.259540231262e+02  -6.119257576126e+02  -3.280072809696e+02 
2 1  4.828697664286e+02  -2.221019320007e+02  -9.124308773760e+01 
3 1 -2.607264786806e+02  -3.774500559911e+02   1.064332353474e+02 
4 1  2.542356380144e+02   2.190850311179e+02  -3.690137357225e+02 
5 1 -2.115371137081e+00  -2.049952486157e+02   8.655079244047e+01 
6 1  1.968024363892e+02  -5.542735817158e+01   1.420496479824e+02 
7 1  1.416275776283e+02  -2.603880736706e+02  -3.360360003676e+02 
8 1  4.710956980117e+02  -5.236261447525e+02  -4.340548605327e+01 
8
Step 3100
1 1 -1.035248674496e+02  -6.791707536132e+01  -1.503502715056e+02 
2 1  3.653504792455e+02  -1.734060295555e+02  -1.297086312279e+02 
3 1 -8.238157000528e+01  -3.758633774102e+02   5.800029471512e+01 
4 1 -2.390213093434e+01   9.096169799193e+01  -7.823453232431e+02 
5 1 -8.993820568175e+01  -5.276329035115e+02   5.737181733772e+02 
6 1  4.419386105041e+02  -8.218396984954e+01   1.935328498241e+02 
7 1  1.343894849317e+02  -1.039755806438e+02  -1.187604601673e+02 
8 1  1.094991189402e+02   4.627697920310e+01  -1.615055568592e+02 
8
Step 3200
1 1 -6.412496456469e+02   4.743405441868e+02   6.441487265416e+01 
2 1 -1.970311169656e+02   2.085987181559e+02   8.138123739386e+01 
3 1  6.052052332935e+01   2.098836963880e+02  -1.061672659017e+02 
4 1 -4.167238113396e+02  -1.487511388452e+02  -3.646754315531e+02 
5 1 -8.078242634485e+01  -2.801351119897e+02   4.360565118588e+02 
6 1  1.723877465329e+02  -2.146859179155e+02   4.471210711157e+00 
7 1 -6.831929267820e+01   1.776669218997e+02   2.710780359948e+02 
8 1 -1.905259707023e+02   3.145910710799e+02  -2.245485260627e+01 
8
Step 3300
1 1 -7.440937118173e+02   5.407561170283e+02   6.399953214793e+00 
2 1 -4.607139659922e+02   2.636422107586e+02   3.188173647611e+02 
3 1  1.370697930265e+02   6.738985415983e+02  -1.290275219888e+02 
4 1 -3.612384991447e+02  -2.908474052688e+02   2.433472390506e+02 
5 1  1.206143827325e+02   1.764273258081e+02  -4.889918240782e+00 
6 1 -2.688182985105e+02  -3.495300163892e+02  -1.279287129888e+02 
7 1 -2.126870385948e+02   2.368506180156e+02   2.937797650524e+02 
8 1 -2.673521689598e+02   6.341699759823e+01   1.313468169954e+02 
8
Step 3400
1 1 -2.420207004640e+02   1.610128997111e+02  -2.157809488791e+02 
2 1 -1.113398095582e+02  -1.733467782676e+02   3.041624939851e+02 
3 1  2.128447147396e+02   3.634370682867e+02   3.915205602806e+01 
4 1  8.130828896766e+01  -2.194660561300e+02   2.342744041978e+02 
5 1  2.751246642578e+02   2.685673690646e+02  -2.131959183139e+02 
6 1 -3.895801091008e+02  -2.986746800569e+02  -1.892255592126e+01 
7 1 -1.007796615287e+02   1.197187758091e+02  -9.056898466307e+01 
8 1 -1.938481000313e+02  -1.441453943474e+02   5.703909287250e+01 
8
Step 3500
1 1  3.755501116794e+02  -2.641242278752e+02  -2.592083943133e+02 
2 1  3.144982531372e+02  -5.154171739381e+02   1.258086703392e+02 
3 1  2.812743205842e+02  -4.428444775839e+02   1.970834157250e+02 
4 1  3.328596108580e+02   1.057284442299e+01  -2.660351201849e+02 
5 1  1.041765928183e+02  -3.428398886288e+01  -1.268415680164e+02 
6 1 -1.639693468872e+02  -3.457120124107e+01   1.198820065040e+02 
7 1  1.467221874680e+02   6.955410910871e+01  -3.713372994852e+02 
8 1 -7.495352398669e+01   1.010594779224e+02  -1.021436059212e+02 
8
Step 3600
1 1  5.253761187378e+02  -4.211489009668e+02  -2.515955064694e+00 
2 1  2.224973547521e+02  -2.486987269935e+02   5.999988866055e+01 
3 1  2.273758563525e+02  -8.647935685845e+02   1.688639193448e+02 
4 1  1.194219815741e+02   2.495364065375e+02  -4.585782394415e+02 
5 1 -2.946010842365e+02  -2.509247726840e+02  -5.324103956703e+01 
6 1  8.440523731276e+01   2.533539122075e+02   2.278555699806e+01 
7 1  2.442411519222e+02   8.410446636631e+01  -1.754786769738e+02 
8 1  6.265885635398e+01   4.366951422832e+02  -3.013125973236e+01 
8
Step 3700
1 1  1.673998791058e+02  -2.675750168777e+02   2.952786583961e+02 
2 1 -2.346798542411e+02   3.416053171224e+02   1.310746857671e+02 
3 1  1.178619791878e+01  -4.197365477305e+02  -8.296855677426e+00 
4 1 -1.948781204036e+02   3.356422550496e+02   2.342106529177e+01 
5 1 -4.625098888354e+02  -4.934796264431e+01  -1.265658611137e+02 
6 1  1.545655933134e+02   3.365118730147e+02  -2.146816988390e+02 
7 1  7.064331583736e+01  -4.089394932903e+01   2.428040236680e+02 
8 1  1.596090366125e+02   2.782179898049e+02   2.632663673004e+02 
8
Step 3800
1 1 -1.630084476224e+02   2.781968765412e+01   3.212407007777e+02 
2 1 -3.817457493927e+02   5.167896010159e+02   5.536628815139e+01 
3 1 -2.097107052393e+02   3.903452313013e+02  -1.593932889242e+02 
4 1 -1.409787737760e+02   2.122006641462e+02   6.244071506106e+02 
5 1 -1.275574631869e+02   3.132648283139e+02  -1.538270732652e+02 
6 1  1.496358781747e+02   2.179515943641e+02  -2.544498683914e+02 
7 1 -1.881843904804e+02  -3.096608262707e+02   3.218138540555e+02 
8 1  1.093683104610e+02  -2.774198693279e+02   3.690899904659e+02 
8
Step 3900
1 1 -5.467692412643e+01   2.688600110177e+02   9.697600219154e+01 
2 1  1.919637627163e+01   7.083541935674e+01  -2.939750507750e+02 
3 1 -2.506989801408e+02   7.024394213561e+02  -1.773955371598e+02 
4 1  1.961965534396e+02  -2.870236756853e+01   6.385571318611e+02 
5 1  4.142924238198e+02   3.475764927397e+02   1.323470619022e+01 
6 1  1.925055511247e+02   9.998635233603e+01  -5.567055018167e+00 
7 1 -2.615427142940e+02  -4.136376327583e+02  -5.283410964542e+01 
8 1 -8.342553963433e+01  -5.246003822993e+02   1.127441713123e+01 
8
Step 4000
1 1  2.821911357097e+02   3.156799059488e+02  -6.567444122133e+01 
2 1  4.213724775291e+02  -3.881056447533e+02  -5.739191496480e+02 
3 1 -1.278983158602e+02   2.877442427255e+02  -9.591381552994e+01 
4 1  3.202694125531e+02  -1.963664120375e+02   1.320503719943e+02 
5 1  5.862183309658e+02  -1.373549682866e+01   1.922315782752e+02 
6 1  1.873338996175e+02   1.088409398483e+02   2.200250700275e+02 
7 1 -8.101176033466e+01  -1.477207043574e+02  -3.716021283233e+02 
8 1 -2.135608438444e+02  -1.087256286610e+02  -4.929029546322e+02 
8
Step 4100
1 1  3.378096941883e+02   1.420592615101e+02   9.300673913203e+00 
2 1  2.648088322490e+02  -2.637457027942e+02  -3.831076383326e+02 
3 1 -3.962682963983e+01  -2.481098896788e+02  -3.418925543325e+00 
4 1  5.114122518144e+01  -1.725916519800e+02  -2.287454684367e+02 
5 1  2.117745849092e+02  -3.315661476689e+02   1.358146681658e+02 
6 1 -4.908369775116e+00   1.316834940252e+02   1.404758624397e+02 
7 1  1.754074208656e+02   2.274277668649e+02  -1.851493506149e+02 
8 1 -8.594187875078e+01   4.356263556405e+02  -5.590896109798e+02 
8
Step 4200
1 1 -7.297941630946e+00  -1.277134458952e+02   1.364733119531e+02 
2 1 -2.393401833171e+02   2.327922870617e+02   1.441897989745e+02 
3 1 -9.281844227476e+01  -2.905997799924e+02   6.551273887712e+01 
4 1 -2.244439947207e+02  -3.825563310634e+01  -1.431234050496e+02 
5 1 -2.983783478548e+02  -2.480600287245e+02  -7.747199816179e+01 
6 1 -2.813460056679e+02  -3.570966784062e+00  -9.907375796430e+01 
7 1  2.905486458888e+02   2.874205242010e+02   2.768121778169e+02 
8 1  2.154238304716e+02   3.845286738278e+02  -8.298832564035e+01 
8
Step 4300
1 1 -3.732552998147e+02  -2.736905907421e+02   4.587274477238e+01 
2 1 -4.256613236724e+02   4.162533081705e+02   4.473533425036e+02 
3 1 -1.584433010126e+02   7.462252837544e+01   1.248197313835e+02 
4 1 -1.268042043739e+02   2.180457695352e+01   1.507099935566e+01 
5 1 -4.544292415329e+02   9.198215296019e+01  -1.446934203928e+02 
6 1 -3.587164247416e+02  -2.583691211502e+02  -1.428264529065e+02 
7 1  1.876663012560e+02   1.068400260691e+01   4.078449256588e+02 
8 1  3.767405146969e+02  -2.269913020425e+02   4.140857319519e+02 
8
Step 4400
1 1 -3.952169658295e+02  -1.434387612967e+02  -2.328482146950e+02 
2 1 -6.992515468922e+01   4.187918788189e+01   2.255661739825e+02 
3 1 -4.558475472158e+01   2.869919041377e+02   1.616071548835e+02 
4 1  1.731547846301e+02  -7.143090380281e+01  -1.316718272856e+02 
5 1 -1.917402478991e+02   2.698583993927e+02   3.465644541005e+01 
6 1 -1.195140990822e+02  -3.843944684023e+02   8.314557136032e+01 
7 1 -5.631954938357e+01  -1.730996332071e+02   1.054144076288e+01 
8 1  1.906155986919e+02  -6.518839506870e+02   3.970160548123e+02 
8
Step 4500
1 1 -1.555923011297e+02   1.572464836338e+02  -3.833629785870e+02 
2 1  3.278043374023e+02  -3.872626767312e+02  -1.512340181425e+02 
3 1  2.236153148981e+02   6.047615614559e+01   1.215177477304e+02 
4 1  1.809153889066e+02  -1.783734980831e+02  -3.769796079338e+02 
5 1  1.311211594716e+02   1.146202197568e+02   2.129832609888e+02 
6 1  1.981631838063e+02  -2.281934532694e+02   2.675021529492e+02 
7 1 -2.745657791060e+02   3.990679484902e+01  -4.231769174149e+02 
8 1 -1.796090505308e+02  -3.828301995934e+02  -3.134847194327e+01 
8
Step 4600
1 1  2.757037567339e+01   3.191068815099e+02  -2.013730693233e+02 
2 1  2.669678800943e+02  -3.323264440285e+02  -1.403122807137e+02 
3 1  4.018858777915e+02  -2.995096277997e+02  -2.059104256301e+01 
4 1 -2.068779596549e+02  -9.303205968970e+01  -2.861883412452e+02 
5 1  2.002937884165e+02  -1.408121155817e+02   1.537123211747e+02 
6 1  2.733459643607e+02   6.684133563736e+01   1.526281735944e+02 
7 1 -3.116732264230e+02   3.795377517222e+02  -3.460730213027e+02 
8 1 -3.766055591209e+02   2.373657583050e+02  -2.943871203694e+02 
8
Step 4700
1 1  5.932477053564e+01   1.308455710097e+02   1.390467170993e+02 
2 1 -8.215686269228e+01   7.508673496968e+01   2.373940463843e+02 
3 1  2.843522832387e+02  -3.411817766771e+02  -1.870991623743e+02 
4 1 -5.127073651735e+02   1.866335105963e+02   8.361183914180e+01 
5 1  4.311173718576e+01  -2.023684341747e+02  -4.722011074615e+01 
6 1  7.093725593716e+01   2.145661377555e+02  -1.182934869118e+02 
7 1 -1.155769041372e+02   3.384062429979e+02   1.489571376838e+02 
8 1 -2.429322806564e+02   5.140723748342e+02  -8.618835553633e+01 
8
Step 4800
1 1  1.079442717943e+02  -2.648048561613e+02   2.860629457962e+02 
2 1 -1.721588761492e+02   2.590913742364e+02   4.154077118149e+02 
3 1 -4.481120355364e+01  -2.938608170755e+01  -2.330162364693e+02 
4 1 -2.988494557584e+02   3.980757897682e+02   2.227770709260e+02 
5 1 -1.079594392326e+02  -6.116358039027e+01  -1.325720863872e+02 
6 1 -1.441728410643e+02   1.100707880443e+02  -2.150704619852e+02 
7 1  1.957219325337e+02  -1.320990793618e+02   4.616086484172e+02 
8 1  2.311950249099e+01   2.774582608723e+02   2.714655122413e+02 
8
Step 4900
1 1  2.406094266726e+02  -4.751312347644e+02   1.175572326541e+02 
2 1  1.089260897185e+02   1.215376700957e+01   5.422866957915e+01 
3 1 -2.888550369725e+02   2.630487003276e+02  -8.626085559902e+01 
4 1  2.429903387079e+02   2.789708681293e+02  -6.167081276882e+01 
5 1 -1.084830226972e+02   6.511829371232e+01  -6.724200959106e+01 
6 1 -1.439395512620e+02  -7.804148902035e+01  -7.247142027032e+01 
7 1  3.853888278011e+02  -5.174514471275e+02   2.485110024749e+02 
8 1  1.334303741018e+02  -2.312735228584e+01   2.954594075039e+02 
8
Step 5000
1 1  2.641709821998e+02  -2.484954729527e+02  -1.437454458964e+02 
2 1  2.756133179787e+02  -2.359423233886e+02  -4.661442841504e+02 
3 1 -2.405016107984e+02   2.269602064381e+02   1.482592955423e+02 
4 1  5.173323542875e+02  -1.152421080992e+02  -3.083371786972e+02 
5 1  1.194153896583e+01   3.052468791502e+01  -4.883779760749e+01 
6 1  2.267521330242e+01  -1.342057387978e+02   5.931872326313e+01 
7 1  2.730907009267e+02  -3.771669350892e+02  -1.855533591768e+02 
8 1  4.350828119599e+01  -1.095732406510e+01  -3.209364051559e+01 
8
Step 5100
1 1  2.068942082962e+01   2.463254425758e+02  -1.972744622033e+02 
2 1 -4.870396449258e+01  -3.522675081426e+01  -5.058967685235e+02 
3 1  7.049307357160e+00  -4.820017873678e+01   2.567922529759e+02 
4 1  2.659914655429e+02  -4.295683525716e+02  -2.963630650667e+01 
5 1  1.576222671996e+02  -8.764224573109e+01  -1.559784428310e+02 
6 1  1.427615374865e+02  -2.488785053100e+01  -1.451048268175e+00 
7 1 -9.386994419751e+01   1.101677533068e+02  -3.212788374638e+02 
8 1 -3.805815752454e+01   1.416765271328e+02  -2.809879922962e+02 
8
Step 5200
1 1 -3.016404639626e+02   5.576722640727e+02   2.033673524933e+01 
2 1 -5.402420947219e+02   4.283548596883e+02   1.862263244927e+01 
3 1  1.545526196860e+02  -2.210036413396e+02   1.079892328357e+02 
4 1 -1.352139310390e+02  -3.650422241780e+02   5.664475072380e+02 
5 1  2.368300142185e+02  -1.069557561874e+02  -1.849045134962e+02 
6 1  1.035178161572e+02   1.316639939401e+02  -1.232506802436e+02 
7 1 -4.376552834272e+02   3.741800664837e+02  -7.588435861702e+01 
8 1  5.311488322012e+01   4.746274910030e+01  -1.612498103973e+02 
8
Step 5300
1 1 -3.135712422308e+02   3.607031160118e+02   2.879386417622e+02 
2 1 -5.000693354054e+02   4.926896615315e+02   4.776467643129e+02 
3 1  6.814759966063e+00  -9.289920859132e+01  -1.947312272709e+02 
4 1 -1.611628374301e+02   1.324962165437e+01   7.409931495532e+02 
5 1  1.463248785038e+02   5.241800708025e+01   5.362262060664e+01 
6 1 -1.825579319972e+01   2.287898960915e+02  -7.889959556129e+01 
7 1 -4.316383371941e+02   1.257532721126e+02   1.406290715199e+02 
8 1  2.086416327511e+02  -2.811353815772e+02   9.586052634637e+01 
8
Step 5400
1 1  3.715045854862e+01  -1.510204783370e+02   3.431172969333e+02 
2 1  1.632037612089e+02  -8.422601466018e+01   2.888193132687e+02 
3 1 -2.536442281312e+02   1.581336637230e+02  -3.464443225907e+02 
4 1  1.565606848557e+02   2.992259253481e+02   2.032250909631e+02 
5 1 -1.318990293017e+02   2.570332867450e+02   3.545310313287e+02 
6 1 -8.139130005338e+01   2.424010391953e+02   8.699044467703e+01 