8
Step 0
1 1  3.023859026055e+02   2.378816802784e+02  -9.555576813497e+01 
2 1  2.697713000661e+02  -2.546322453998e+02  -6.199506671967e+02 
3 1 -6.255592878208e+02  -1.652719680071e+02  -4.327187349958e+02 
4 1  1.094359229731e+02  -2.812415677186e+02   5.182986855887e+02 
5 1  6.418775273896e+01  -4.157455463467e+02  -2.316845659138e+02 
6 1  2.785438408206e+02   2.531813734805e+02   6.452012672630e+01 
7 1  1.707535445606e+02  -1.773918968688e+02  -4.312858342593e+00 
8 1 -5.187397608193e+02   9.509279551745e+01  -3.168950203061e+02 
8
Step 1000
1 1  2.361894751233e+02  -2.617787934018e+02  -5.196659879456e+01 
2 1  1.601337084415e+02   1.054254674965e+02  -1.166592318871e+02 
3 1 -2.459834287706e+02   4.613954497570e+02  -6.665456759093e+02 
4 1 -2.066332232472e+02  -2.256489894292e+01  -2.642363543578e+02 
5 1  3.435429656463e+01   1.625845754681e+02  -6.279448966242e+02 
6 1 -2.785651287203e+02  -2.238925188346e+02   3.028071205315e+02 
7 1  4.375673495878e+02   2.564761689395e+02   6.986853074738e+01 
8 1  7.152532613790e+02   3.912236441195e+02  -2.505348883012e+02 
8
Step 2000
1 1  3.482846553332e+02  -1.442344632376e+02  -9.975345097225e+01 
2 1  1.926831688413e+01  -1.747266844027e+02  -3.231734402447e+02 
3 1 -7.025805517087e+01   7.574160989413e+01   1.146649580509e+02 
4 1  2.084983467505e+01  -3.559138825715e+02   1.956041316496e+02 
5 1  7.626119808953e+01   2.137489736913e+01  -6.138634336254e+02 
6 1  1.788598953654e+01   1.399013492105e+02  -1.601828220990e+02 
7 1 -3.065675909816e+02   2.891212548298e+02  -5.244632368002e+02 
8 1 -1.115871373738e+02  -1.516996496728e+02  -3.365987360474e+02 
8
Step 3000
1 1 -1.692746457813e+01   3.769976585760e+02   6.655435669215e+00 
2 1  1.297796903176e+02  -3.979505794133e+02  -5.925979376534e+02 
3 1 -3.849757180335e+02   2.321936026814e+02  -3.605035451564e+01 
4 1  4.239014832536e+02  -6.567210766386e+02   5.628448681960e+02 
5 1  2.446092149986e+02   2.933185211234e+02  -4.335354882647e+02 
6 1 -7.236840410755e+01   3.575390924044e+02  -3.005863954392e+02 
7 1 -2.707981299936e+02   1.048745783538e+02  -5.517704987274e+02 
8 1 -6.294728133391e+02   3.685632915647e+02  -7.856852461521e+02 
8
Step 4000
1 1 -2.268522400118e+02   2.878507521090e+02  -7.361057690356e+02 
2 1  6.401536422298e+01  -2.503132654580e+02  -1.535102064156e+01 
3 1 -3.733262978591e+02  -1.163585684256e+02   9.522396634300e+01 
4 1  4.050661128467e+02  -4.606838541249e+02   1.238979815075e+02 
5 1 -2.129017693891e+02   5.383857394082e+01  -5.277335841604e+02 
6 1 -3.074004477754e+02   2.530664207403e+02  -2.341946984154e+02 
7 1 -3.875870474986e+02   1.761834606865e+02  -2.435088388191e+02 
8 1 -2.681029310848e+02   2.711446651150e+02  -1.057396572003e+02 
8
Step 5000
1 1 -4.022725859931e+01   1.110622135126e+01   9.916331087192e+01 
2 1  1.169016315023e+02   3.475693624259e+02  -5.846717910527e+02 
3 1 -4.203681458430e+02   3.769985072983e+02  -3.661905412829e+02 
4 1  4.298696230264e+02   5.171231396113e+02   6.245162031883e+02 
5 1 -2.458147443818e+02   3.279310248637e+02  -7.003272760399e+02 
6 1  3.794500152467e+02   6.432172560543e+02  -3.715686680856e+02 
7 1  2.819994936680e+02   1.237255090466e+02  -3.911324421720e+02 
8 1 -4.563312398327e+01   1.187553799042e+02  -3.007777822662e+02 
8
Step 6000
1 1 -1.184642156965e+02  -1.698724299657e+01  -4.184870053288e+02 
2 1  7.650790739489e+00  -3.013642949194e+02  -3.297205581168e+02 
3 1 -4.442992613849e+02   6.009046078453e+02   1.410028190498e+02 
4 1  7.143750863896e+01  -1.209359474908e+02   6.134011211334e+02 
5 1 -1.144070663796e+02   5.213891078662e+02  -8.476174278712e+02 
6 1 -5.294611917250e+02  -9.239402217008e+01   2.145912701888e+02 
7 1  3.213206312364e+02   1.047780022523e+01  -4.011831238214e+02 
8 1 -2.636816869064e+02  -5.249446645225e+01  -5.865240417296e+02 
8
Step 7000
1 1 -6.418663421474e+01  -1.566353381841e+02  -2.172447145525e+02 
2 1 -9.194107740484e+01   3.074857683486e+01   4.065228985862e+02 
3 1 -5.452991092956e+02   3.836321420712e+02  -4.027326511957e+02 
4 1  1.731215457738e+02  -4.243236482615e+02   8.279295537821e+02 
5 1  4.278833359765e+02   8.376948853629e+02  -9.001421054522e+02 
6 1 -4.699041607472e+02   4.701055326536e+02  -7.730350870689e+02 
7 1 -4.360682942625e+02   3.518076064526e+02  -7.202368327563e+02 
8 1  2.510618743187e+02   6.369822445040e+01  -1.971192511245e+02 
8
Step 8000
1 1 -1.533025470418e+02   2.141844356723e+02  -2.782285168116e+02 
2 1 -4.576067087406e+02  -4.101486937157e+02  -2.851366743791e+02 
3 1 -5.995726753319e+02   4.502502105888e+02   1.467620107726e+02 
4 1  5.772739212153e+02  -4.247428046487e+02   1.284478257218e+03 
5 1 -5.980136732684e+01   3.458818160187e+02  -9.279943403242e+02 
6 1 -8.229497805866e+02   5.327861382067e+02  -1.557665853442e+02 
7 1 -2.783290561770e+02   6.048654757447e+02  -2.338028975306e+02 
8 1 -3.185150291943e+01  -2.671242728821e+02  -3.108377014388e+02 
8
Step 9000
1 1 -7.662311896508e+02   2.500964715558e+02  -3.172853173331e+02 
2 1 -7.944769928375e+01  -2.705745463645e+01  -5.048287213198e+02 
3 1 -3.438482643108e+02   4.223328480853e+02   2.476452152778e+02 
4 1  2.775561585786e+02  -1.869654581860e+02   1.389001415291e+02 
5 1  5.013237525859e+01   8.938311934941e+02  -5.229408891457e+02 
6 1  1.269125846933e+02   4.910471187406e+01  -9.496254146602e+01 
7 1  8.889217251146e+01   5.020676306503e+02  -1.015972734622e+02 
8 1 -1.618259585936e+02   3.864206619102e+01  -4.644532856361e+01 
8
Step 10000
1 1 -1.997821103996e+02  -1.381738508647e+02  -4.417306574949e+02 
2 1 -3.564244309997e+02  -5.153734101805e+01   4.190618049466e+02 
3 1 -2.374927583168e+02   5.443274483084e+02  -2.038489913685e+02 
4 1  2.438077111285e+02   6.293206432724e+02   1.243728627765e+03 
5 1 -2.892846558327e+02   6.593949440085e+02  -6.805666370942e+02 
6 1 -7.033674366877e+01   6.401731800396e+02  -3.941430088839e+02 
7 1 -7.489972938858e+00  -4.382179724122e+02  -3.048839394649e+02 
8 1  2.482448216562e+02  -1.629840996045e+02   3.689588964910e+02 
8
Step 11000
1 1 -5.859380451413e+01  -3.287321884374e+02   1.542851687554e+02 
2 1  1.033148050833e+02   3.823006954525e+01   1.011859245448e+02 
3 1 -7.009500341353e+02   8.286794838336e+02  -1.030282126877e+02 
4 1  9.298525385336e+01  -2.299249724088e+01   7.872498767417e+02 
5 1  2.935156019449e+02   4.211485875474e+02  -7.173091099262e+02 
6 1 -4.797814792170e+02   2.365656672300e+02  -5.785115529575e+02 
7 1  1.427443439056e+02  -1.213991731598e+02  -1.550987238279e+02 
8 1  2.311588984812e+01   1.837495815595e+02  -1.194452946977e+02 
8
Step 12000
1 1 -4.092754464913e+02  -1.577788096765e+02  -1.437948406969e+02 
2 1 -7.342673430851e+02  -4.270620988636e+02   2.788727968797e+02 
3 1  7.052498077363e+01   1.618185692496e+02   1.981684945882e+02 
4 1 -4.675484117482e+02  -1.380932040575e+02   6.602607864281e+02 
5 1  2.291672834252e+02   4.289762580595e+02  -6.262557004756e+02 
6 1 -6.625714819555e+02   2.520014641904e+02  -1.000287469637e+02 
7 1 -4.129010201649e+01   3.509356030271e+01  -2.178296348016e+01 
8 1 -5.021282783373e+01   1.658668081825e+02   5.596274918085e+02 
8
Step 13000
1 1 -3.878253954441e+02  -2.110816925691e+01  -3.356132420386e+01 
2 1 -2.916849178383e+02   5.359205847915e+01   3.039810730547e+01 
3 1 -3.967743455931e+02   3.469614409889e+02  -4.080810839444e+02 
4 1  3.838512530784e+02  -4.271500856522e+02   1.407484191352e+03 
5 1  4.187394855754e+02   9.126670511882e+02  -7.548663499655e+02 
6 1 -2.765110535670e+02   6.686538587991e+02   1.434190227090e+02 
7 1 -5.563829938106e+01   8.945665822254e+01  -4.849307913571e+00 
8 1  2.154761140762e+02  -2.626793268625e+02   1.551325773827e+02 
8
Step 14000
1 1 -5.281968363561e+02  -6.259145007087e+01  -2.725829631920e+02 
2 1 -3.131645582486e+02   1.988092840064e+02   4.077917056514e+02 
3 1  4.216976753930e+01   6.420096539840e+02   1.116584020409e+02 
4 1  1.527539365022e+02   5.559352383724e+01   8.050954005302e+02 
5 1 -6.932126947083e+01   7.955528782401e+02  -4.162106161060e+02 
6 1 -2.005985748177e+02   8.103257420850e+01  -2.927567286246e+01 
7 1 -5.022789628701e+02   1.317241564411e+02   3.154689706395e+02 
8 1  9.000173702780e+02  -9.289996781789e+02   8.172138147254e+02 
8
Step 15000
1 1 -2.304370354873e+02  -3.187864488492e+01   2.201629742603e+02 
2 1 -2.192710355644e+02  -2.845977724412e+02   6.936357738102e+02 
3 1  1.243141535925e+02   5.905184906961e+02  -2.723072425681e+02 
4 1  2.656367641342e+01   2.407528133330e+02   4.010325138708e+02 
5 1 -3.050836991179e+02   1.948466059608e+02  -7.697452868141e+02 
6 1  3.507268167895e+02  -2.648486734989e+02   1.769381305065e+02 
7 1  1.559398544484e+02  -8.921075936126e+01  -2.133924704455e+02 
8 1  1.758801440148e+02  -3.703502846105e+02   6.682651283040e+02 
8
Step 16000
1 1 -3.748605574306e+02  -6.693326921324e+02   8.420842618952e+01 
2 1  2.406096935177e+02  -2.317217647716e+02   7.676966198788e+02 
3 1 -3.472278006657e+02   4.659305352079e+02  -1.153529801412e+02 
4 1 -5.348598168814e+01   2.731695283859e+02   9.681394590888e+02 
5 1 -3.226410620953e+02   4.742640874849e+02  -2.419364387192e+02 
6 1  4.361281754912e+02  -4.914137788376e+01   2.689358055171e+02 
7 1 -3.776102400539e+02   2.357309570564e+01   2.126577906025e+02 
8 1  2.741183367193e+02  -3.485857648013e+02   2.803031698821e+02 
8
Step 17000
1 1 -4.884419863853e+02  -2.688111734925e+02   2.041405407297e+02 
2 1 -1.106974627862e+02  -7.650090594240e+01   3.843980124682e+01 
3 1  1.407456901594e+02  -2.091523107775e+02  -3.073512375401e+02 
4 1 -4.011946544907e+01  -4.009395176504e+02   3.405259896246e+02 
5 1  1.764607372573e+02   4.349860966341e+02   5.061007662037e+01 
6 1 -4.073843179184e+02   2.488503994903e+02   1.183762013174e+02 
7 1 -4.938361196485e+01  -6.295027279378e+02   1.731381341267e+02 
8 1  2.220484439180e+02  -1.702412759082e+02   9.006208639571e+02 
8
Step 18000
1 1 -1.868733669431e+02  -2.943793648568e+01  -1.172444391321e+01 
2 1 -4.501313565724e+02   2.670546375545e+02   9.056492192915e+02 
3 1  3.427782476237e+02   5.294274784218e+02  -1.163312449182e+02 
4 1  2.124596878996e+02  -4.382867879957e+02   3.589192127348e+02 
5 1  2.413909695259e+02   2.398725740774e+02  -9.808116856639e+01 
6 1 -6.473920648987e+01   1.573423961721e+02   4.846706343343e+02 
7 1  3.278746516768e+02  -2.533862855515e+02   4.734158321754e+02 
8 1  2.256912020109e+01  -3.641101097834e+02   6.208332547066e+02 
8
Step 19000
1 1  3.689337841895e+02  -5.841218939256e+02  -3.809859218310e+01 
2 1 -1.133087989656e+02   8.563403058644e+02   7.578802803951e+02 
3 1  5.214039398676e+02   2.477043650332e+02  -4.329109207303e+01 
4 1 -4.089565551064e+02  -3.373679679885e+01   5.524966436221e+02 
5 1 -1.259918761499e+02   4.266746754498e+02  -4.304360990850e+02 
6 1  2.000162392600e+02  -6.415465063256e+02   2.906023519473e+02 
7 1  3.568709945785e+02  -6.591803134295e+02   1.446920580587e+02 
8 1  4.625297408408e+02  -6.140206937126e+02   3.531179760241e+02 
8
Step 20000
1 1 -9.738769696504e+01  -2.494204440290e+02   3.142757776516e+02 
2 1 -9.653306908819e+01  -2.496563220583e+02   4.846791481900e+02 
3 1  4.494026246678e+02   1.493053769624e+02  -4.343734776771e+02 
4 1 -3.040164863642e+02  -2.813191829651e+02   7.710168331438e+01 
5 1 -2.984094235201e+02   2.573887747535e+02   3.821487086735e+00 
6 1  9.242109352523e+01  -1.668474727560e+02   6.128075944600e+01 
7 1  4.877567467786e+02  -6.337532091784e+02   1.898440904879e+02 
8 1  3.864248825800e+01  -2.532365488026e+02   1.374669266541e+03 
8
Step 21000
1 1  4.027433463268e+02  -3.181535888456e+02  -2.250080306080e+02 
2 1 -2.142786375641e+02  -2.416736267152e+02   1.051497923733e+03 
3 1  4.295505278186e+02  -2.279306632764e+02  -4.363207314031e+02 
4 1 -2.324248141891e+02   2.076633689250e+01   8.957895835602e+01 
5 1 -2.796949403618e+01  -3.644417734455e+02   4.464126018575e+01 
6 1  1.461406996842e+02  -3.886311888801e+02   9.576025722674e+01 
7 1 -2.414252970977e+02   1.306581451177e+02  -1.881790335031e+01 
8 1  1.339652155944e+02  -7.398016541096e+02   7.746918573873e+02 
8
Step 22000
1 1 -4.635235325333e+02   6.968788538166e+01   2.788112049398e+02 
2 1  4.541573053863e+02   3.797964213900e+02   2.054762599113e+02 
3 1  9.301211597308e+02  -3.114627621048e+02  -2.286204860152e+01 
4 1  2.385213351524e+02   1.309263455303e+01   1.425270356874e+02 
5 1 -2.410936059998e+02  -2.446607465525e+02  -7.902014785415e+00 
6 1 -4.716003768943e+01  -3.009363574157e+02   6.720437935723e+02 
7 1  6.486973752228e+01  -4.543082764656e+02  -1.192017790162e+02 
8 1  6.063566535509e+01   1.807625018581e+02   6.976476253586e+02 
8
Step 23000
1 1  2.592274393659e+02   3.339495260141e+01  -1.567914993489e+02 
2 1 -8.172548174627e+01   6.818117509697e+02   5.088847002181e+02 
3 1  3.778192221097e+02  -1.581288698533e+02  -2.404756756621e+02 
4 1  1.516579517834e+02  -4.094830318331e+02  -3.009233213056e+02 
5 1 -3.728630866130e+01  -3.429430242371e+02   2.929372885240e+02 
6 1 -3.544317364754e+01  -9.452491217195e+01  -8.014511866574e+01 
7 1  1.179746409097e+02  -9.034307263663e+02   1.401124138071e+02 
8 1  4.809972206017e+02  -8.824361927209e+02   5.911311019138e+02 
8
Step 24000
1 1  5.827874681307e+02  -4.191072690960e+02   1.829323275691e+02 
2 1  1.117190616477e+02   7.611506414670e+02   3.733380956683e+02 
3 1  7.142484493952e+01  -1.227927799546e+02  -3.222831468110e+02 
4 1 -2.739218114679e+02  -1.483235609224e+01   1.323326238730e+02 
5 1  4.151500920756e+02   8.522208668842e+01  -2.169384726271e+01 
6 1 -4.499789003863e+01   2.815517907399e+01   1.492702879963e+02 
7 1  5.781753668593e+02  -5.478323904775e+02   9.908431799481e+01 
8 1  3.832072248732e+02  -5.085480790985e+02   1.642877348939e+02 
8
Step 25000
1 1 -1.792377667337e+02  -3.806954853629e+02  -5.028560744290e+02 
2 1  3.488847101940e+02  -2.959474754512e+02   1.604260507786e+02 
3 1  9.883677032729e+02  -2.275932625445e+02  -1.885061747127e+02 
4 1 -2.666469042082e+02  -5.289262591538e+02  -3.178366256122e+02 
5 1 -2.872073668345e+02  -4.197524220612e+02  -7.816988717740e+01 
6 1 -1.981641228611e+02  -4.331652299543e+02   6.991309891361e+02 
7 1 -2.172003457476e+02  -1.902618933077e+02   2.291065346966e+02 
8 1  9.673545764131e+01  -3.007974959927e+02  -9.486507257250e+01 
8
Step 26000
1 1  4.016082038350e+02   2.847971151268e+02   1.813525573902e+02 
2 1 -2.555084934574e+02   4.206191122748e+02   3.809528718337e+02 
3 1  9.776684508411e+02  -5.781021965083e+02  -5.393391167896e+02 
4 1 -8.583294376403e+01  -2.577006252479e+02  -1.930108202180e+02 
5 1  3.142659363640e+02  -2.040896846237e+02   2.867246453974e+02 
6 1 -2.238245694394e+02  -4.981348231137e+02  -4.297638529973e+01 
7 1 -2.567500493324e+02   2.448432950950e+02  -1.600984127955e+02 
8 1 -7.066101660306e+01  -1.645811895205e+02  -1.120665933903e+01 
8
Step 27000
1 1  5.387817636832e+02   2.018763272612e+02  -3.850446441898e+02 
2 1  1.473930140130e+02   2.648989779438e+02  -2.700845191249e+01 
3 1  3.500938090216e+02   3.379262702968e+01  -1.348888531573e+02 
4 1  2.496167242730e+02  -4.909159817552e+02   9.918416096440e+01 
5 1 -1.815532753102e+02  -3.885752299103e+02  -9.183040746913e+01 
6 1 -6.321889872697e+02  -1.277526476728e+02   1.820864978999e+02 
7 1 -3.397977447335e+01  -6.726761089397e+01  -4.603177417764e+02 
8 1  8.701169657785e+02  -4.956410921081e+02   2.183925866555e+02 
8
Step 28000
1 1  3.636155284365e+01   4.883841372863e+02  -5.321182493823e+02 
2 1  2.665687340558e+02   7.628105973570e+01  -1.243168821611e+02 
3 1  2.961732921162e+02  -5.125235502966e+02  -3.814303554293e+02 
4 1  1.071429702646e+02   2.070458463916e+01  -5.831866229063e+02 
5 1  8.200177978354e+01  -1.020360999445e+02   3.563765312642e+02 
6 1  8.092376800687e+02   4.631698447280e+01   4.662746159002e+02 
7 1 -1.180645248462e+02   3.792907103574e+01  -3.048629833214e+02 
8 1 -3.379022201444e+01  -2.500257883234e+02  -1.615096133978e+02 
8
Step 29000
1 1  2.549170629114e+02  -7.588489181763e+02  -1.746006803717e+02 
2 1  4.784763786937e+01   2.112506126196e+02  -3.003764068846e+02 
3 1  4.061666548923e+02  -9.862705552037e+01   4.029896749600e+01 
4 1 -1.319916322200e+02  -3.170420405350e+02  -5.961747555053e+02 
5 1  8.726726452154e+01  -6.244320102828e+02   3.228388413426e+02 
6 1 -5.674388784522e+02   2.626992166378e+02   7.478733050162e+01 
7 1  1.143069971872e+02  -4.811318632565e+01  -4.939203466902e+02 
8 1 -7.279759673046e+01  -2.187966867528e+02  -4.275137971144e+02 
8
Step 30000
1 1  5.769969887177e+02   5.424432019191e+02  -1.678377346198e+02 
2 1  4.714828114657e+02   6.936286358720e+01  -8.723411028601e+01 
3 1  3.386004842681e+02  -5.363359005365e+02  -2.462690075864e+02 
4 1 -4.055662139521e+02  -1.336973652934e+02  -6.686503627891e+02 
5 1  2.600166378765e+02  -8.929698270766e+01   7.336043650756e+02 
6 1 -1.540826783799e+02   6.122336029964e+02  -1.326929181935e+02 
7 1 -3.085752189109e+02  -5.911602551732e+01  -8.330276436219e+02 
8 1 -2.936052764975e+02   5.123707597172e+01  -4.169475681582e+02 
8
Step 31000
1 1 -1.943278249450e+02   4.360592695108e+02  -5.508051405555e+02 
2 1  1.853317233323e+02   5.919779119575e+01  -4.462176850218e+02 
3 1  5.002970527545e+02  -4.049217505370e+02   4.722415071259e+01 
4 1 -4.882128251399e+02   1.620250062715e+02  -3.874021175702e+02 
5 1 -2.852067201992e+02  -4.453782315656e+02   1.605166328395e+01 
6 1 -2.614016639342e+02   3.908121936844e+01   2.784599899309e+02 
7 1  2.124228150983e+02  -1.611851718025e+02  -1.420712933984e+02 
8 1 -8.141997066577e+01  -1.334716983393e+02  -5.413573458950e+02 
8
Step 32000
1 1  5.979383495572e+02   4.503811253888e+02  -3.392668351183e+02 
2 1 -2.284241490011e+02   3.508517304782e+02  -5.102396532762e+02 
3 1  4.308154863161e+02   7.980374450702e+01   1.681944043583e+02 
4 1 -1.372747091540e+02  -6.429364063252e+01  -4.638377391594e+02 
5 1  2.247320121862e+02  -6.171887853611e+02   4.218443036293e+02 
6 1  3.929513522089e+02   1.207351287515e+02   2.078066170021e+02 
7 1 -1.145847133290e+02   1.138131743800e+03  -9.452457759649e+02 
8 1  3.499330867653e+01   2.645487286131e+02  -7.977688833721e+02 
8
Step 33000
1 1  3.952663005563e+01   6.857368155765e+01  -8.778193060270e+02 
2 1 -1.042713239145e+02  -5.499702188391e+02  -3.573915810974e+02 
3 1 -3.519854111438e+01  -2.003610525520e+02  -2.508063337901e+02 
4 1  1.812899311887e+02   1.853681617067e+01  -1.532913145335e+02 
5 1  3.656497373966e+01   4.800371947671e+02   6.350567280040e+02 
6 1 -5.288111098823e+01  -1.611446624328e+02   2.898356365749e+02 
7 1 -4.293332038629e+02   2.183310933714e+02  -8.155704445690e+02 
8 1 -7.318221522227e+01   2.526189740986e+02  -4.204238130020e+02 
8
Step 34000
1 1 -3.443120499942e+02   1.529328579904e+02  -1.304086857606e+02 
2 1  8.137369562834e+02  -3.178214796575e+02  -2.055885885483e+02 
3 1 -1.522097799929e+02  -9.125932252119e+01  -1.522653225610e+01 
4 1 -2.072336732394e+02   1.113231297702e+02  -7.667050375109e+02 
5 1 -3.291653092682e+02   5.416326872805e+02  -4.212624026850e+01 
6 1  1.890569454621e+02   4.257230750605e+02   2.015321367368e+02 
7 1 -2.781520445939e+02   4.542387323573e+02  -1.077446378090e+03 
8 1 -4.910586768069e+02  -3.226374364098e+02  -3.923012906829e+02 
8
Step 35000
1 1  3.572236077023e+02   2.889550001263e+02  -2.122169633809e+02 
2 1 -8.195303467462e+01   1.574344507219e+02  -5.291629352479e+02 
3 1 -5.022340580833e+02   3.279294222624e+02   8.834143132395e+02 
4 1 -2.147074613603e+02   1.506982520197e+02  -4.791599773505e+02 
5 1 -3.812284836194e+01  -8.956827648083e+01   8.199776864806e+02 
6 1  2.699691400088e+02  -4.114287507824e+02   3.764098104264e+02 
7 1 -3.737977152520e+02   1.590341581402e+02  -1.189038743517e+03 
8 1 -5.233258014932e+02   6.982990403048e+02  -9.413840059232e+02 
8
Step 36000
1 1 -1.543683728203e+02   6.479425157407e+02  -6.311920106072e+02 
2 1  1.692992040717e+02  -3.974656609195e+01  -3.386761452076e+02 
3 1  2.459601532336e+02  -1.349668822843e+02  -1.103667600615e+02 
4 1  2.210135466471e+02   3.761770929334e+02  -5.921904082355e+02 
5 1  1.633060106892e+02  -4.155227628730e+02   6.946790127784e+02 
6 1 -4.342988524180e+02   6.561654867114e+02  -5.245927210251e+01 
7 1 -1.236256326649e+02   4.680047913430e+02  -7.863908927047e+02 
8 1 -1.542334579235e+02   7.439580522781e+02  -4.399028359642e+01 
8
Step 37000
1 1 -4.704100756980e+02  -2.166699097418e+02  -1.691913657204e+02 
2 1 -1.511493399842e+02   3.493556886457e+00  -8.266336569973e+02 
3 1 -2.259865558341e+02  -4.395757560474e+02   5.397993617352e+02 
4 1 -2.649225825363e+02   7.027221280179e+02  -2.759216086591e+02 
5 1  1.856062972170e+02  -2.288030618161e+02   7.822121674777e+02 
6 1  9.789747018201e+01   3.032539973394e+02   3.134207448320e+02 
7 1 -4.075241174277e+02   1.840036113157e+02  -7.618936814824e+02 
8 1  1.610188441127e+02   9.355420859375e+02  -4.891417825136e+02 
8
Step 38000
1 1  2.323413164445e+01   2.297974204116e+02   1.163728969532e+02 
2 1  3.740151654030e+02  -6.948487146299e+02  -3.872640191105e+02 
3 1 -6.032262925816e+02   5.010462255845e+02   4.451118351342e+02 
4 1  3.932967048207e+01   7.869869944610e+02  -3.622662990610e+02 
5 1  2.201408379034e+02  -8.325933022196e+00  -2.786045488105e+01 
6 1 -2.365878699107e+01   5.967056297397e+00   3.121954945368e+02 
7 1 -1.477187248858e+02   1.743110909561e+02  -2.823240152646e+02 
8 1 -6.048513540747e+02   7.810515915401e+02  -1.098477784738e+03 
8
Step 39000
1 1 -2.009342381963e+02   5.864421848968e+02  -4.404559354246e+02 
2 1  7.946198254819e+01  -5.072330918941e+02   1.586998952526e+02 
3 1 -1.151034824611e+03  -1.962589228572e+02   2.735389266001e+02 
4 1 -2.839946038369e+02   5.634040056129e+02  -4.302031747992e+01 
5 1 -2.686235152385e+00   5.002325389104e+02   6.855465995896e+02 
6 1  1.514840754886e+02  -2.683396087809e+02   1.506387156396e+02 
7 1 -5.685200332954e+02   3.725819768903e+02  -5.899987750014e+02 
8 1 -2.861890509915e+02  -2.198507634610e+01  -4.309012335164e+01 
8
Step 40000
1 1 -4.627847604686e+02  -2.335076924337e+02   6.051513686069e+02 
2 1  1.390175941074e+02   1.411357984203e+02  -4.380164222370e+02 
3 1 -4.351693802910e+02   6.488302959176e+01   4.892814546203e+02 
4 1  2.631081705893e+02   4.179918020858e+02  -1.314067774731e+02 
5 1  4.478394500961e+02   4.042818085176e+02   1.108960446483e+02 
6 1 -1.019541797989e+02   3.590767427000e+02   3.428837664900e+02 
7 1 -6.537510682624e+02   3.054201326566e+02  -6.897783130890e+02 
8 1  1.476126258977e+02   5.376778470529e+02  -4.941619377565e+02 
8
Step 41000
1 1  3.972845304740e+01   5.644828326245e+02  -4.553008216860e+01 
2 1 -3.094131999427e+02  -2.263930074841e+02  -4.396744454195e+02 
3 1 -4.297091446054e+02   1.536829217061e+02   3.922120468746e+02 
4 1 -8.473643459110e+00  -3.652642151889e+01  -2.002560677958e+02 
5 1 -8.832586187172e+01   9.027258646299e+01   8.260160643877e+02 
6 1  3.546895915623e+02   4.993861797076e+02   5.948547753575e+02 
7 1  2.273606161147e+02   6.845463279764e+02   8.707169019088e+01 
8 1 -4.011074198915e+02   1.214551977649e+02  -9.949371080754e+01 
8
Step 42000
1 1 -7.500371406979e+02  -2.605751337950e+02   3.080259010306e+02 
2 1 -5.801528128565e+01  -4.772728432986e+02  -3.808834613802e+02 
3 1 -6.131398167656e+02  -8.501675783118e+01   6.912644366839e+02 
4 1 -2.063665505602e+02   8.175813894432e+02  -6.913828814883e+02 
5 1  2.414440760859e+02  -3.294073491864e+02   2.139014941267e+02 
6 1  3.036489339595e+02   1.019260706027e+01   9.392525662205e+01 
7 1 -2.980111390715e+02   2.255952987266e+02  -3.098520256379e+02 
8 1  3.520415540006e+02   4.832977896029e+02   4.035215653311e+02 
8
Step 43000
1 1 -8.955358200132e+01   1.163326666387e+02   7.459368138306e+02 
2 1 -1.784151479405e+02  -1.429554857954e+02  -3.161536896001e+02 
3 1 -1.158330634951e+03   1.526837648290e+02   8.863730766652e+02 
4 1 -4.597880036458e+02   5.569119683547e+02  -2.314826514734e+01 
5 1  3.988079354414e+02  -5.008260906712e+02   7.528082101423e+02 
6 1  1.066729747761e+02   3.607383941601e+02   4.955561009165e+02 
7 1 -6.643539023518e+01  -1.648098254128e+02  -3.173217975297e+02 
8 1 -7.302072170429e+01   3.156796499365e+02  -3.158576818095e+02 
8
Step 44000
1 1 -2.372477192978e+02   1.099874084147e+02   5.580923950273e+02 
2 1 -1.006458873196e+02  -8.065731396201e+02  -4.588709008547e+00 
3 1 -2.878758739798e+02  -4.432324063575e+01   4.107506850625e+02 
4 1  4.218872563680e+02   6.351580546259e+02  -2.641166811822e+02 
5 1 -1.382261709325e+00   3.075076809573e+02   4.218063375701e+02 
6 1  1.739957326021e+02   3.076863548278e+02   1.839878085413e+02 
7 1 -1.284547273329e+02  -2.596633519981e+01   2.246299417857e+02 
8 1 -5.129851084089e+02  -5.359607750276e+01  -1.223685400918e+02 
8
Step 45000
1 1 -5.853917704853e+02   4.909318244185e+02   4.579230208365e+02 
2 1 -2.127159250667e+01  -4.534051054936e+02   3.708028887469e+01 
3 1 -9.295044843904e+02   1.606508198340e+02   3.709910868837e+02 
4 1 -3.193512814605e+02   4.196850210215e+01  -1.580524857059e+02 
5 1  6.304576361240e+02  -3.742216648268e+02  -4.407983964925e+01 
6 1  6.566807119128e+02   1.803496071261e+02   1.258195673640e+03 
7 1  3.908339494586e+01   3.586462899840e+02  -1.468290220514e+01 
8 1  1.308389501107e+02   1.554290330424e+02   5.206757754317e+02 
8
Step 46000
1 1 -2.047679181050e+02   1.018331525992e+02   6.675794162985e+02 
2 1 -3.377832555765e+02   3.953758625756e+01   3.346740852204e+02 
3 1 -4.113099805736e+02  -4.360507399215e+02  -2.465073634796e+02 
4 1  3.755114596996e+02  -5.892068922745e+02  -1.381601377852e+02 
5 1  2.627542132358e+02  -1.839082920094e+02   4.743526318082e+02 
6 1  1.893801064514e+02  -1.146467011629e+02  -6.686541317064e+01 
7 1  4.072219353533e+02   3.961069499180e+02   8.636528443100e+01 
8 1  1.225177839877e+02   3.368345628807e+02   5.033495158719e+02 
8
Step 47000
1 1 -5.252142585409e+01   1.139607528236e+01   7.208322411877e+02 
2 1 -8.854517672019e+01  -2.898702083717e+02  -3.376265937314e+02 
3 1 -1.021785208909e+03   8.615735545071e+01   5.839097684819e+02 
4 1  5.643792236929e+01  -1.509294060748e+01   1.603869035375e+02 
5 1  3.228817497806e+02  -1.800571254335e+02  -1.370835781624e+02 
6 1  1.018931549418e+02  -2.083563967067e+02   3.862062880753e+02 
7 1  3.587267198197e+02   1.327245371217e+02   3.211563878882e+02 
8 1 -2.566849667454e+02  -2.856765958372e+02   7.289003111840e+02 
8
Step 48000
1 1 -4.601278475513e+02  -5.485681734675e+01   7.533955961016e+02 
2 1 -2.451396220792e+01  -7.935166757321e+02   1.980612198121e+02 
3 1 -2.187254352348e+02   5.522537547975e+01   9.543623243493e+02 
4 1 -1.685255310712e+02   5.319043532064e+02  -6.760727593371e+02 
5 1  1.113191040891e+02  -6.713757221192e+02   2.240740362262e+02 
6 1  4.408999901885e+02  -5.999181193457e+02   4.897606011871e+02 
7 1 -1.939776343934e+02  -1.689131279974e+02  -2.633546360049e+02 
8 1  4.931184512195e+01  -6.372016344018e+01   8.775586085609e+01 
8
Step 49000
1 1 -6.476522573379e+02   4.046683344235e+02   7.881542718613e+02 
2 1  4.185050804794e+02   2.762502343689e+02  -6.711364560246e+01 
3 1 -2.233109486664e+02  -3.076165149481e+02   4.033171288454e+02 
4 1  4.046730619775e+02   1.559164576364e+01  -3.384120536832e+02 
5 1  3.706681932531e+02  -1.573171601119e+02  -1.843069288473e+02 
6 1  5.055155094968e+02  -1.010316874628e+00   2.199053740417e+02 
7 1  3.093317781111e+02  -3.698901440768e+02   1.009985214508e+03 
8 1 -1.012176780632e+02   1.929778104942e+02   6.072803609768e+02 
8
Step 50000
1 1 -3.900545695642e+01   2.187328130386e+02   4.901319297190e+02 
2 1 -3.830687218490e+02  -8.349896812955e+02   6.125440979076e+01 
3 1 -3.389062575495e+02  -4.370922573576e+01  -2.625006690843e+02 
4 1  3.385105217215e+02  -8.250216323079e+02  -2.188651378195e+02 
5 1  2.523076228059e+02  -6.673185977979e+02  -4.322285290369e+02 
6 1  4.286122025666e+02   4.548357060504e+01   7.418067020272e+02 
7 1  2.573989929376e+02  -5.083721873165e+01   4.495960668049e+02 
8 1  3.473497629570e+02   6.654665880735e+01   4.599908100705e+02 
8
Step 51000
1 1  3.836271728578e+02   9.344640549591e+01   7.141538144638e+02 
2 1 -3.287418288017e+02  -9.536674337648e+01   7.143667239537e+01 
3 1 -4.066704105448e+02   1.041272347187e+02   8.592909579042e+00 
4 1  3.373626299386e+02  -5.040458232767e+02   3.442796712905e+02 
5 1  2.373438131772e+02  -4.448831844399e+02   1.547154257707e+02 
6 1  5.164338763285e+02  -3.632317868123e+02   7.132810179982e+01 
7 1 -1.748267426733e+02  -1.169682394038e+02   1.276287885511e+02 
8 1  3.265003863763e+02  -1.604796105248e+01  -6.827759168393e+01 
8
Step 52000
1 1 -6.564449629621e+01  -1.269733714590e+02   3.513143733081e+02 
2 1  3.764745556990e+02  -4.682283634943e+02   3.154937200741e+02 
3 1  2.309284493802e+02  -2.710766553546e+02   4.053063059683e+01 
4 1 -3.901954693376e+01  -2.948171879576e+02  -2.500777267599e+02 
5 1  2.138715737095e+02  -3.173099843098e+02  -8.836025986314e+02 
6 1 -2.969000984654e+02  -2.752675416191e+02   6.432748707591e+01 
7 1 -2.395463903191e+02  -7.361071031966e+02   5.850269533572e+02 
8 1  2.421497782078e+02  -2.644335783488e+01   5.801637930487e+02 
8
Step 53000
1 1 -3.576429133515e+01   3.269720015675e+02   4.896368977883e+02 
2 1 -7.857758625899e+02  -1.559757499528e+02   1.126352468196e+02 
3 1  5.237239000778e+02   5.753525254616e+02  -4.122270850880e+01 
4 1  7.056022031809e+02  -4.414219839852e+02  -4.300493791386e+02 
5 1 -2.161544628429e+02  -1.514257478637e+02  -5.024529267565e+02 
6 1 -3.080491528482e+01  -9.884226857015e+02   1.608902474977e+02 
7 1  4.005606654693e+02   1.005215809557e+02   6.251375201928e+02 
8 1  4.198965138718e+02  -3.183932292073e+02   2.860861006382e+02 
8
Step 54000
1 1  6.975999373108e+01   6.262238112440e+02   1.241859690726e+02 
2 1  2.800021845228e+02  -4.331465039046e+02  -6.013789155605e+02 
3 1  9.552056866207e+01  -6.845431421336e+02   8.363334921245e+02 
4 1 -6.678477754890e+01  -7.738305284393e+02  -2.967679467457e+02 
5 1  4.134521195312e+02  -4.165318428694e+02  -1.459281569958e+02 