8
Step 0
1 1  6.432999158367e+02  -3.750043051772e+02   1.863687949543e+02 
2 1 -2.201019873105e+02   2.464960749827e+02  -6.376381097987e+02 
3 1 -6.024538913253e+00  -1.827773412917e+02  -4.399180420284e+02 
4 1  1.026746989624e+02  -4.153192840206e+02  -1.393689401268e+01 
5 1 -9.595944750191e+01  -2.674248283274e+01  -4.487471032148e+02 
6 1 -3.988877813901e+02   3.054212219501e+02   4.208222042057e+01 
7 1 -3.199643233897e+02  -6.637035784303e+01  -1.718066721548e+02 
8 1  3.032519195824e+01   2.941914944596e+01  -2.574490654431e+02 
8
Step 1000
1 1  1.205644346780e+02   1.970527100140e+02  -4.363559474541e+01 
2 1 -7.623154591954e+01   3.083576084593e+02  -2.686391369217e+02 
3 1 -2.851070810653e+00   1.871136737205e+02  -2.231205892839e+02 
4 1  3.279493170672e+01  -2.471343553370e+02  -1.705216572185e+02 
5 1 -4.124505841869e+02   1.376520871925e+02   1.563412103853e+02 
6 1 -3.111804041943e+02   1.110245964713e+01  -2.393652502104e+02 
7 1 -7.398653046050e-02  -5.869236002485e+01   1.904095336767e+02 
8 1 -6.384100671852e+01   3.005536467691e+02  -2.270238082812e+02 
8
Step 2000
1 1  6.676485048514e+01  -1.286221233355e+02  -6.236879437647e+01 
2 1 -1.286314085353e+02   4.481506575868e+02   8.974697348641e+01 
3 1 -4.079675281978e+01   4.249673614206e+02  -2.767180637479e+02 
4 1 -4.542314189563e+02   4.127726099044e+01  -1.429260655094e+02 
5 1 -3.651169999748e+02   2.221331195991e+02  -1.258609876546e+02 
6 1 -2.893080152361e+02  -3.145427658118e+02  -4.986048462073e+01 
7 1  1.465932204942e+02   2.445061659925e+02  -4.936811676718e+00 
8 1  1.111936992784e+02  -1.022687126145e+02  -1.033224867317e+02 
8
Step 3000
1 1 -1.439217699801e+02   3.103453746388e+02  -3.381211779222e+02 
2 1 -2.655766709466e+02   3.631000772764e+02   2.204143903385e+02 
3 1 -6.232876180494e+01  -3.338387220952e+01  -4.790188866687e+02 
4 1 -6.863948167474e+02  -2.126192370510e+02   2.836592852340e+02 
5 1 -3.476602975055e+02   8.031933176702e+01  -3.381578138215e+02 
6 1 -3.708928848903e+02   5.602832569597e+01   2.387028139460e+01 
7 1 -2.456595210767e+02   2.998869172792e+02   1.172945917925e+02 
8 1  5.947956161318e+01   9.266724743654e+01   2.961011128364e+02 
8
Step 4000
1 1 -3.986949320477e+01   7.298197420121e+01   1.756239805181e+02 
2 1 -2.352118723184e+02   4.127063203786e+02  -6.866616883180e+01 
3 1 -3.508015672314e+02   3.236534550279e+02  -3.370940378320e+02 
4 1 -4.584407761888e+02   5.748709248826e+02   8.141473631806e+02 
5 1 -1.113283952446e+01   8.055750652492e+01  -1.515726405678e+02 
6 1  2.343371121066e+02   2.053453558753e+02  -2.140068120726e+02 
7 1  2.408675388919e+02  -2.682503519964e+02   1.006794549182e+02 
8 1 -9.233342681128e+01   1.957620493817e+02   5.764136616832e+01 
8
Step 5000
1 1 -1.755353957553e+02   1.941386904120e+02   8.715467971719e+01 
2 1 -5.326227805801e+02   3.753705570672e+01   1.276862310235e+01 
3 1 -2.666343871565e+02  -2.341886295320e+02   3.034539481727e+02 
4 1 -1.421175846437e+02  -1.684788802209e+02   5.357539281194e+02 
5 1 -1.855009653356e+01  -1.467406712005e+01  -3.180748270466e+02 
6 1 -2.229421024738e+02   3.246879013766e+02  -2.322333047085e+02 
7 1 -5.431516526453e+01   3.076408203299e+02   4.354935508197e+02 
8 1 -1.136401656562e+02   1.453543178124e+02  -5.526395667746e+01 
8
Step 6000
1 1 -4.332478052830e+02  -5.375975884587e+01  -4.908808378886e+01 
2 1 -2.945787047003e+02   2.223044940751e+02  -1.096411983384e+01 
3 1 -1.588014068677e+01   2.991933060759e+02   3.179618061363e+02 
4 1 -2.139359778284e+02  -1.517229061112e+02   2.531372271442e+02 
5 1  3.755074520951e+02   2.645879230243e+02   1.237381486369e+01 
6 1  2.225696687336e+02  -2.340976087757e+02  -9.595901843366e+01 
7 1 -2.055086739129e+02   2.800059241324e+02   2.754902541996e+02 
8 1  3.626769011431e+02  -6.868103855792e+01   2.675162108565e+02 
8
Step 7000
1 1 -2.778434616031e+02  -2.481120205284e+02   8.377654645513e+01 
2 1 -5.117085916196e+02   5.044326068165e+01   2.291538820528e+02 
3 1  3.046759236672e+01  -3.070896117755e+02   2.863374926077e+01 
4 1 -4.567027743688e+01  -3.898023426432e+02   5.476406541043e+02 
5 1 -1.443918649119e+02  -1.073650903623e+02  -1.126481247947e+02 
6 1  1.509302432802e+02  -1.299426652908e+02   3.778693051539e+01 
7 1  1.784036880960e+02   1.887939484320e+02   2.648807756646e+02 
8 1 -1.306019268662e+02   1.202444379583e+02   9.247652477866e+01 
8
Step 8000
1 1 -1.604602850084e+02  -6.897010906893e+01  -9.455188603130e+01 
2 1 -2.109930798697e+02   3.869578588024e+02   2.241340772440e+02 
3 1  3.167213572911e+02  -1.004383264463e+02   4.379198157567e+01 
4 1  4.069811446319e+02  -1.096015679175e+02   6.583456728372e+02 
5 1  6.101333094162e+02  -2.037167408104e+02  -1.269044953852e+02 
6 1 -2.319421715985e+02   3.903920133971e+02  -9.317744261577e+01 
7 1  1.648829758744e+02  -7.920773361218e+01   2.012003591689e+02 
8 1  1.425413414464e+02  -2.995891740554e+02   9.179038319082e+01 
8
Step 9000
1 1 -2.093369848948e+02  -3.042524073309e+02   4.512590646509e+02 
2 1  7.661870378825e+01  -1.578388213082e+02  -6.045140442087e+00 
3 1  1.648216312872e+02   3.979219487746e+01  -3.797828718229e+01 
4 1 -1.909019590963e+02  -1.481926304747e+02   4.669556010718e+02 
5 1  1.593167219905e+02  -1.838174049645e+02  -1.594356671331e+02 
6 1  1.881237911767e+02  -2.773158207596e+00  -1.951725465207e+02 
7 1 -4.190371424602e+01  -6.941719427370e+01   9.932631498928e+01 
8 1  1.230976293349e+02  -5.860503193770e+02  -4.476575224013e+01 
8
Step 10000
1 1 -5.151240831420e+01  -3.559220032280e+01  -3.508332071695e+02 
2 1  6.032650322170e+01   1.382423383403e+02   1.067569098773e+02 
3 1  5.163813834724e+02  -5.974821522976e+02   2.300781676058e+02 
4 1  3.120095272298e+02  -1.048050787186e+02   1.315686203341e+02 
5 1 -5.676000269132e+01  -7.599212353898e+01  -2.014152415563e+02 
6 1  4.116242329339e+02  -5.686905680706e+02  -1.816617986060e+02 
7 1 -1.297433702878e+02  -1.955913566064e+02   3.408448340922e+02 
8 1 -5.120418915266e+01  -2.815440550342e+02  -8.457124323340e+01 
8
Step 11000
1 1  1.637983364408e+02  -6.665963180258e+01  -1.277715125842e+02 
2 1 -3.969964505665e+01  -1.002745852697e+02   2.795026756206e+02 
3 1  1.451720494803e+02   1.789724393546e+02   1.675667662218e+02 
4 1 -2.409370648162e+02  -7.547609000792e+01  -8.700630031354e+01 
5 1  4.901452654041e+02  -6.088767533327e+01  -1.871599301014e+02 
6 1  1.814721955239e+02  -1.692311989355e+02  -8.845312930852e+01 
7 1 -1.574058218903e+02  -3.920721943677e+02   8.628045095630e+01 
8 1  7.127243833100e+01  -4.279496573964e+02  -1.377270133449e+02 
8
Step 12000
1 1 -3.081751510870e+01   5.152831920701e+01  -4.299996464517e+02 
2 1 -1.278560965691e+02  -2.119960685022e+02  -1.115785107682e+02 
3 1  2.055791883966e+02   2.868435473084e+02   4.614829381014e+02 
4 1  2.273916730143e+02  -4.843227006866e+02   4.638049459178e+02 
5 1  9.012637549361e+00   6.907009483580e+01  -4.518635239976e+02 
6 1  9.389691740284e+01  -2.950905187369e+02   4.921997942281e+01 
7 1 -1.208621660509e+02  -5.817073759168e+02  -8.170978567019e+01 
8 1 -7.600048160496e+01  -1.057746223505e+02  -2.575471443700e+02 
8
Step 13000
1 1  9.346456882306e+01   1.134527936330e+02  -1.272669767138e+02 
2 1 -6.558345007956e+01   2.086663185887e+02  -7.559167430784e+01 
3 1 -8.094119941537e+01  -1.869622432588e+02  -1.516999411968e+02 
4 1  7.481753569231e+02  -1.821781042820e+02   1.881932876408e+02 
5 1  9.212047365282e+01  -1.711649366125e+02  -1.586918302472e+02 
6 1  2.141268471973e+02  -8.178386081855e+01   1.456104387810e+01 
7 1 -3.556047426939e+00   2.467532803470e+01   1.276857834292e+02 
8 1 -4.404098828973e+02  -2.273321308761e+02  -2.500833597623e+02 
8
Step 14000
1 1 -2.164564202242e+02  -2.435269021718e+02  -4.064615026517e+02 
2 1 -4.221483609130e+01  -1.024313495046e+02  -2.750747168317e+02 
3 1  4.960652053485e+01   3.552060553672e+02  -1.895010616692e+02 
4 1 -2.368364796335e+02  -1.381611164299e+01  -1.008116051833e+02 
5 1 -1.844277496177e+02  -6.125109314480e+02   1.828175847208e+02 
6 1 -9.481207857996e+01  -2.746447579218e+02  -2.934722596749e+01 
7 1 -1.142705551859e+02   1.426589203506e+02   1.707311023791e+02 
8 1 -3.595930212401e+02  -4.026759520415e+02  -4.282045641261e+02 
8
Step 15000
1 1 -1.484073425504e+02   4.531049904447e+02  -3.320405437099e+02 
2 1 -1.542888072379e+01   1.761426683915e+02  -1.081238526782e+02 
3 1  3.192378926439e+02  -1.006618449611e+02  -2.575342891231e+02 
4 1  3.535747688522e+02  -2.404028507994e+02  -2.580632367074e+02 
5 1  8.862361721786e+01   8.164955175079e+00   4.267781869803e+02 
6 1  1.849442424993e+02  -6.773863167887e+00   3.271218242222e+02 
7 1 -2.008756860858e+02   4.557450583952e+02  -4.031647255199e+01 
8 1  9.632907662982e+01   3.716851622883e+02  -1.840348493845e+02 
8
Step 16000
1 1 -1.002101708639e+02   1.451036582960e+00  -8.515964596335e+01 
2 1 -2.995288489386e+01   3.565664558379e+02   1.136308589846e+02 
3 1 -7.077722566850e+02   7.523317124789e+01  -4.076903296577e+02 
4 1 -1.739314021445e+02   6.384485888109e+01  -2.586533339182e+02 
5 1 -1.458582518212e+02  -1.741427992517e+01   3.602761548125e+02 
6 1 -2.869750516060e+01   1.849213056091e+02   3.797704970830e+02 
7 1 -2.749004476843e+02  -4.544083421483e+01  -2.592565336681e+02 
8 1 -4.228011843426e+02  -9.445011509187e+01  -1.183153724704e+02 
8
Step 17000
1 1  1.207626356942e+02   8.558608149238e+02   2.035326656080e+02 
2 1  1.905303539867e+02  -1.116036291158e+02  -2.830336639257e+02 
3 1 -4.130932920250e+02   4.822383423603e+02  -2.381759831572e+02 
4 1 -9.910327139320e+01  -7.230562386850e+01  -2.639418468018e+02 
5 1 -1.335495911423e+02   7.914554230452e-01   2.171993064889e+02 
6 1 -6.029580507264e+01   4.998068924175e+02   5.295288383554e+02 
7 1  1.838668768641e+02   6.746996144377e+01   2.549504955799e+02 
8 1 -2.712601843052e+02   1.028466045758e+02  -3.637495709176e+02 
8
Step 18000
1 1  4.445705950795e+02   6.235123252301e+01   4.095881929513e+02 
2 1 -4.202315254408e+01   3.545840195511e+02  -2.696537697896e+02 
3 1 -4.933173558912e+02   4.060929912430e+02  -5.649791339866e+01 
4 1 -3.672319332581e+02   2.401891256680e+02  -4.234358093705e+02 
5 1 -5.041968161965e+02   9.161465180564e+01   1.524853707028e+02 
6 1  1.850304959505e+02  -1.701821370444e+02   5.299490782349e+02 
7 1 -1.566266532211e+02   2.338733921163e+02   3.858617880573e+02 
8 1 -3.781254734345e+02   2.726865502970e+02  -5.206332424388e+02 
8
Step 19000
1 1  6.456375216954e+00   3.623212446004e+02   1.799239810723e+02 
2 1  3.325136706003e+02   3.330309094540e+02   2.756080914219e+02 
3 1  6.764252972345e+01   4.571702464505e+02   2.757261698673e+02 
4 1 -3.213877185798e+02   9.863778968945e+02  -6.104654568570e+02 
5 1 -4.989058505739e+02   1.428581424734e+02   2.322507651957e+02 
6 1  4.046863566942e+02  -3.725399436785e+02   4.399785627149e+02 
7 1  2.340939466790e+01   2.871705608171e+02   3.108933083253e+02 
8 1 -5.067052531067e+01   2.188961966518e+02  -3.048078708279e+01 
8
Step 20000
1 1 -4.767278125115e+01   4.463238382010e+02   2.889992332477e+02 
2 1  4.520112670075e+01   9.962123724339e+00   2.073801043735e+02 
3 1  1.768641667709e+02   7.791307470786e+01   2.639116291576e+02 
4 1 -2.473776013854e+02   1.698242288682e+02  -3.805828323496e+02 
5 1 -9.647918811975e+01   1.904227626922e+02   3.018046710923e+02 
6 1 -9.388512479460e+01   1.470258846679e+02   8.996814023489e+01 
7 1 -1.479207685246e+02   1.252170137660e+02  -1.682139687705e+02 
8 1 -5.204519958814e+01   2.958729273067e+02   1.236498762475e+02 
8
Step 21000
1 1 -2.952611268121e+01   8.723681224022e+00   3.610346257393e+02 
2 1  4.891070537563e+02   6.680116084128e+01   5.697979026367e+02 
3 1 -1.393675194109e+02   1.453150096697e+02  -2.277068902269e+01 
4 1  1.047871616475e+02   2.681147511128e+02  -5.352443570862e+02 
5 1 -9.561789054399e+01   1.491716565427e+01   2.109114299228e+01 
6 1 -2.084447446360e+02   2.967843846507e+02   1.887938349956e+02 
7 1  3.109857773717e+01  -3.767245347570e+02  -7.427186022877e+01 
8 1  7.977433721547e+01   3.038220211208e+02  -9.884063470105e+01 
8
Step 22000
1 1  1.130519491532e+02   4.103667886751e+02   3.791860873416e+02 
2 1  4.457623820850e+02  -2.281837897319e+02  -1.424975736135e+02 
3 1 -2.529556734956e+02  -2.161136973263e+02   7.892210303642e+01 
4 1  3.701500517608e+02  -1.210204605923e+02   6.224372332532e+01 
5 1 -7.505399737452e+01  -1.301263392122e+01   7.731695234280e+01 
6 1  2.003224886116e+02   8.139732119755e+02   2.352817403072e+02 
7 1  3.309662890830e+02   9.834619398382e+01   1.711968786750e+02 
8 1  6.916742255141e+01   3.047770527913e+02   5.022510385550e+01 
8
Step 23000
1 1  9.302509342136e+01  -6.813503674030e+02   5.031664515463e+02 
2 1 -5.221812101415e+01   1.694944144709e+02   1.326886158753e+02 
3 1  2.408805730049e+01   3.635712855731e+02   2.463804898747e+02 
4 1  3.502863693176e+01  -1.229669669732e+02  -3.348115539769e+02 
5 1  2.785968364098e+02  -1.026357583552e+01   9.810389879036e+00 
6 1  5.330243954695e+02   5.726795092665e+01   1.122642156347e+02 
7 1 -6.186712078010e+01   1.875029504170e+02  -6.750491978289e+01 
8 1 -1.774815351121e+01  -1.853430444645e+02  -2.186676607213e+02 
8
Step 24000
1 1 -2.529266944416e+01  -8.927823459361e+01  -2.223890814190e+02 
2 1  7.413110485979e+01  -2.359904078066e+02   1.909243452200e+02 
3 1 -1.134914628945e+02  -4.394012807126e+02   3.717862398238e+02 
4 1  1.031958344826e+02  -6.952676095076e+01  -2.670869979941e+02 
5 1  3.728246301391e+02   2.028937603431e+02   2.999568393065e+02 
6 1  4.633717632758e+02   1.393086605979e+02  -2.155060878549e+02 
7 1  4.564759254406e+01   2.062843841733e+02  -5.448209074714e+01 
8 1  6.147624465584e+02   1.384537290619e+02  -3.361561079604e+02 
8
Step 25000
1 1  2.560743766367e+02  -5.313962148730e+02   2.919120162469e+00 
2 1  2.489439148019e+01  -3.471684133876e+02  -2.633992409870e+02 
3 1 -1.358545217826e+02  -2.828285282483e+02   1.683361080537e+02 
4 1 -6.553716214206e+01   1.784640571566e+02  -3.436120947473e+02 
5 1  3.692872737298e+01  -2.346720962995e+02   4.463601360402e+01 
6 1  3.419671252755e+02  -1.047956613395e+02  -3.662537841702e+02 
7 1  1.219812110854e+02  -5.513698731207e+02  -1.873470342581e+02 
8 1 -4.689217437017e+00   4.868200107204e+02   8.595463655427e+01 
8
Step 26000
1 1  2.017729008006e+02  -2.207941314894e+02  -5.588756544951e+02 
2 1  3.776773175074e+02  -4.265808782989e+02  -4.478116748470e+02 
3 1  2.385328647146e+02  -4.056403432954e+01   6.601740802836e+02 
4 1 -1.916590996541e+02   1.939044121972e+02   1.055977883388e+01 
5 1  3.693001573269e+02  -5.773729965930e+01  -2.092592461288e+02 
6 1  2.422356319448e+02   2.260376802660e+02  -3.174481250024e+02 
7 1  5.782803795136e+02  -5.540455958900e+01  -1.559694392164e+02 
8 1  4.365539212706e+02   1.410991881209e+02   4.839917204314e+02 
8
Step 27000
1 1 -2.613538449396e+02  -1.080489076374e+02   1.551888804226e+02 
2 1  1.542699769941e+02  -2.082134659382e+01  -5.533277187426e+02 
3 1 -2.346962970345e+02   9.804281022957e+00   3.289979910489e+01 
4 1  2.752837561192e+02  -1.562915213554e+02   3.737259667824e+02 
5 1 -1.957266023199e+02  -4.539006560919e+01  -3.981965172811e+02 
6 1  3.835467985688e+01  -1.774210973255e+02  -6.193339685644e+02 
7 1 -1.078802269749e+01  -3.035363288304e+02   2.097100850382e+02 
8 1  5.163214966813e+02  -4.515591298634e+02  -1.809350487844e+02 
8
Step 28000
1 1  5.448777149310e+01  -2.584959391607e+01  -4.133128841641e+02 
2 1 -2.562809025413e+00   1.442097518580e+02  -2.211821177801e+02 
3 1  2.496820988215e+02  -2.222638864347e+02   5.339038546928e+02 
4 1  3.641704960674e+02  -5.451789484528e+01   1.934940450274e+02 
5 1 -2.831889825813e+02   3.371370776101e+02  -4.379135735956e+02 
6 1  3.851370140883e+02  -7.523865746917e+01  -6.399399417128e+02 
7 1 -3.523415473929e+02  -2.815130935737e+02  -9.526537104742e+01 
8 1  3.377498995482e+02  -6.700379111721e+02  -2.137210242909e+02 
8
Step 29000
1 1 -8.804393453090e+01   4.725987478594e+02  -2.132892824267e+02 
2 1 -1.072717201916e+02   1.613594236959e+02  -1.090394057008e+02 
3 1  2.327122999541e+02  -2.602790582492e+02  -2.351444789442e+02 
4 1 -1.610228649652e+02   1.183336362350e+02  -4.109735914589e+02 
5 1 -3.633739409122e+01   2.244967889425e+02   1.426960882228e+02 
6 1 -6.397012569433e+01  -1.915146232356e+02  -3.045897947988e+01 
7 1 -1.903984943019e+02  -5.809914503843e+02  -1.677210649523e+02 
8 1  3.430186428718e+02  -7.085629693437e+02   2.762443586908e+02 
8
Step 30000
1 1  1.763039377881e+02   4.639799743297e+02  -5.448878980114e+02 
2 1  3.528677535307e+01   4.017367715176e+01   1.643443568640e+02 
3 1  3.063006238154e+01  -1.300585718983e+02  -1.460875501035e+02 
4 1  4.354351703153e+01   1.304532366288e+01   7.944194828697e+00 
5 1  4.129245778973e+01   9.304029658334e+01  -5.988206429655e+01 
6 1 -3.935429088885e+02   1.284765801357e+02  -7.879027257013e+01 
7 1  3.339604659044e+01  -5.983937580641e+02   1.716553480820e+00 
8 1 -1.023640965489e+02   7.702777882751e+01   1.241580393100e+02 
8
Step 31000
1 1 -3.948512712116e+02   4.519222172039e+02  -1.744296072074e+02 
2 1 -6.730444989322e+01   6.700388673286e+01  -1.288744597703e+02 
3 1 -4.390526280757e+01   3.600896251560e+02  -1.621788096236e+02 
4 1 -1.653232535575e+01   2.299523032062e+02  -1.356312458196e+02 
5 1  3.402218471573e+02  -3.794325814558e+01  -2.935470769195e+02 
6 1  6.904092101872e+01  -2.459048159179e+02  -1.099318158832e+02 
7 1 -2.687951743435e+02  -4.452797057631e+02   3.553575180488e+02 
8 1 -3.291674198660e+02  -2.708183532546e+01   2.932877901504e+02 
8
Step 32000
1 1 -1.725832496107e+01   3.217552259256e+02   7.622818336556e+01 
2 1 -1.370011975979e+02  -6.832758920159e+01  -2.871007301131e+02 
3 1  2.524373053794e+01   3.118222257518e+02  -4.352110550831e+02 
4 1 -8.000152140316e+01  -1.307862921851e+02   3.290023345613e+02 
5 1 -2.686588857141e+02  -2.772216951022e+02  -6.546039300586e+01 
6 1 -2.769967906694e+02  -1.613064393079e+02  -3.247515815775e+02 
7 1 -3.330754987823e+02   2.215732199413e+02   2.331529897585e+02 
8 1 -1.973563743681e+02   6.106274756701e+01   2.014691903769e+02 
8
Step 33000
1 1  3.418345863235e+01   2.225215058081e+02  -2.921311451208e+02 
2 1 -4.259009671002e+02   4.913749511813e+02  -1.000012079375e+02 
3 1 -1.927682162439e+01   2.030052413309e+02  -3.045516266931e+02 
4 1  2.226354740241e+02   5.980670729610e+01   3.635088579069e+02 
5 1  2.055900374218e+02   2.635628390937e+02  -2.361364098675e+02 
6 1  1.686554931513e+02  -9.426581518043e+01   1.548673487800e+02 
7 1 -3.202464313109e+02  -7.208532290982e+01   9.400205152457e+02 
8 1  1.751714517667e+00  -6.835591483103e+01   2.983870274668e+02 
8
Step 34000
1 1  6.424084353555e+01   1.734547673065e+02   2.411329488510e+02 
2 1 -3.400756909636e+02   2.734710941296e+02  -3.108215195680e+02 
3 1  1.649351293478e+02  -3.252379979375e+02  -1.652701174134e+02 
4 1 -2.136627407156e+02  -9.514485299718e+01   1.391257085144e+02 
5 1 -1.737000595577e+02  -1.133225834758e+02   1.994976281650e+02 
6 1 -2.288758546436e+02  -6.765330941757e+00  -4.377672973885e+01 
7 1 -1.977638000726e+02   2.881220622440e+02   2.271592460557e+02 
8 1 -6.484882985836e+01   1.935341241391e+02   1.149170836347e+02 
8
Step 35000
1 1 -2.258786393294e+02  -1.041986740549e+02  -3.127107021365e+01 
2 1 -1.265139724229e+02   2.262615021897e+02   3.165893749345e+02 
3 1  2.803733346196e+02   1.134183412075e+02  -4.416468360458e+02 
4 1 -6.169157169371e+01  -1.359156573971e+02   1.004022864335e+02 
5 1  2.431259057783e+02  -2.127618523612e+02   9.298645331181e+01 
6 1 -3.641615479607e+02   3.417272428570e+02   1.775269473517e+02 
7 1  2.059154555702e+02   1.617601374985e+02  -8.463540926333e+01 
8 1  5.375904055994e+01  -1.110631053964e+02   5.774470625966e+01 
8
Step 36000
1 1  1.383024880937e+00   5.314812465453e+01   3.111382947405e+02 
2 1  1.867193853783e+02  -4.184371814637e+02   2.815300987360e+02 
3 1 -1.069217725566e+01  -2.519733998339e+00  -3.178803478453e+02 
4 1 -1.968778379370e+02  -3.227508512199e+02   4.167560759561e+02 
5 1  1.623635633716e+02   3.003749752540e+02  -2.221538894521e+02 
6 1 -2.812288814722e+02  -2.162137988100e+02   2.059689031881e+02 
7 1 -5.588307228096e+02  -7.327736623310e+01  -2.700768560575e+02 
8 1 -2.525383576336e+02   2.788309308682e+01  -1.309845233502e+02 
8
Step 37000
1 1  7.050381894328e+01  -1.236850298005e+02  -3.148599262938e+02 
2 1  2.825091604329e+02  -3.261676980446e+02   1.195930072550e+02 
3 1  4.510451436157e+02  -3.445574265896e+02  -3.293408536156e+01 
4 1 -1.792806634923e+02  -1.341582165302e+02   6.206962091797e+01 
5 1 -3.014742141303e+02   3.798457945248e+01   1.580526283670e+02 
6 1 -2.862571392067e+01  -2.806644591118e+02   7.590018108492e+01 
7 1 -2.534686339140e+01   5.869966646800e+02   4.731360647780e+02 
8 1  4.958653117882e+02   4.545865405940e+02  -1.509275511589e+02 
8
Step 38000
1 1 -1.952039533667e+02   3.209832306553e+01   8.192872010417e+01 
2 1 -1.239127479389e+02  -1.834065443604e+02   1.736059415604e+02 
3 1  3.463865245779e+01  -6.536805763157e+02   4.076013271343e+01 
4 1 -2.058399851821e+01   5.731851239881e+01   1.642314244674e+02 
5 1  2.686642291863e+02  -2.523627496902e+02  -6.858507674316e+01 
6 1 -2.650209342628e+02  -2.963640015316e+02  -1.363601791923e+02 
7 1 -1.837555042678e+02   2.412239062501e+02   1.738853571984e+02 
8 1 -2.421715004186e+02  -3.944879522858e+01  -2.925891730743e+02 
8
Step 39000
1 1 -3.408780266908e+01  -2.861345012679e+02   2.871981456262e+02 
2 1  1.303162617397e+02  -2.583856850480e+02  -1.205027203489e+02 
3 1  2.029542607694e+02  -2.704715590458e+02  -1.631138495728e+02 
4 1  2.661253651646e+00  -3.145490456562e+02   2.555651594626e+02 
5 1  2.654373002374e+02  -3.789280977815e+02  -3.253951371205e+02 
6 1 -4.349343098465e+02  -2.106836522326e+02   3.133114310651e+00 
7 1  5.141209500110e+01   2.452720377338e+02  -1.768200107010e+02 
8 1  2.053992614443e+02   3.052131438368e+02  -2.212056022427e+02 
8
Step 40000
1 1 -1.786919188933e+02  -4.083030054308e+02   2.572325241622e+02 
2 1 -2.363484636600e+02  -1.567865855904e+02   2.119976608103e+02 
3 1  2.437003252023e+02   3.924083792671e+02  -2.098035146516e+02 
4 1 -1.505892707238e+02  -2.251757475364e+02   8.500462006293e+01 
5 1  8.468434434649e+01  -2.568698654760e+02   2.194609794479e+01 
6 1  2.722614537293e+01  -1.916275851503e+02  -5.741010321786e+01 
7 1  1.404867806700e+01  -1.315071024730e+02   2.205912225821e+02 
8 1  3.632742022828e+02   1.158607486900e+01  -3.455918890597e+02 
8
Step 41000
1 1  1.723078097737e+02  -4.214777893195e+02   2.524478276043e+02 
2 1 -7.406419445174e+00  -2.013383506018e+01   2.678920961748e+01 
3 1 -2.932059181365e+02   8.661759801922e+01  -6.724722153802e+02 
4 1 -8.207922380680e+01  -3.386976924740e+02  -1.714727378898e+02 
5 1  4.598762205981e+02  -6.808651264564e+01   8.363040634085e+01 
6 1  2.165842856287e+02  -1.368348341093e+02  -8.861859698423e+00 
7 1 -6.655204025535e+01   3.376848930043e+02  -6.472894614247e+00 
8 1 -1.691453540681e+02  -2.134356837447e+02  -1.875789825558e+02 
8
Step 42000
1 1  1.297269590750e+01  -3.185513739279e+02   1.464847756094e+02 
2 1 -5.243118627089e+02   7.847784412017e+01   4.113714041841e+02 
3 1 -1.704105673833e+02  -2.739790878159e+02  -4.367579311620e+02 
4 1 -3.116425356331e+02   2.027478811192e+01  -2.547893399770e+02 
5 1  1.554547349774e+02   7.553917922259e+01  -4.597011536728e+01 
6 1  7.123843339457e+01  -3.272869541296e+02   1.692241172476e+02 
7 1  4.868722550996e+02   1.783006738860e+02  -2.235123955192e+02 
8 1  2.716873422929e+02   9.850032429847e+01  -1.116281718614e+02 
8
Step 43000
1 1 -5.397108898120e+01  -1.306691813524e+02   2.545234523223e+02 
2 1 -4.102228670282e+02  -6.943232149965e+01   2.118307052886e+01 
3 1 -2.694346254737e+02  -2.781776994422e+02  -1.339504397361e+02 
4 1 -8.105360621405e+01   8.031588564092e+00  -2.562740778903e+02 
5 1  1.852308364111e+02  -2.014829844938e+02  -6.982000063749e+01 
6 1  1.838095868671e+02   1.087264512671e+01   7.720966620287e+01 
7 1 -1.051366900652e+02  -9.273744892173e+01  -1.282458103166e+02 
8 1  5.270515206558e+01   1.179816839726e+02  -7.075754106826e+02 
8
Step 44000
1 1 -5.345558654534e+01  -6.423139753653e+01   7.472032082613e+01 
2 1 -8.339292392576e+01   8.839425690459e+00  -3.465828343696e+02 
3 1  2.238787075767e+01   1.374508450615e+02   1.571551606932e+02 
4 1  4.597342745391e+01   8.071549623102e+01   1.629533912931e+01 
5 1 -1.717456594476e+02  -2.259711007714e+01   2.401927258007e+02 
6 1  5.650601689753e+01   4.038443979142e+02   1.307182397121e+01 
7 1  2.440132374456e+02   2.338176197151e+02   4.260647747666e+02 
8 1  4.741267424151e+02  -1.059153810364e+02  -3.834507293193e+02 
8
Step 45000
1 1 -3.045078145189e+02  -7.103506011547e+01  -2.348313263284e+02 
2 1 -4.288156484141e+01   6.262793668130e+01  -3.476740323321e+01 
3 1  5.900294829032e+01   3.974076164202e+02   2.702767601469e+02 
4 1 -6.126943216435e+02  -1.614461301202e+02  -1.541163873326e+02 
5 1 -2.334400549528e+02   3.501423259902e+02  -6.851944525419e+01 
6 1 -2.030558170889e+02   1.550371600355e+02   5.732423403396e+01 
7 1  1.001488133898e+02   1.314118544215e+02  -1.924430403304e+02 
8 1  2.724151921204e+02  -3.364815426391e+02   8.918083709021e+00 
8
Step 46000
1 1  3.126377799847e+00   4.605038984311e+02   2.988590440129e+02 
2 1  4.347772392893e+02  -2.178041647157e+02  -2.703767695229e+01 
3 1  6.964772003510e+00   1.209727281354e+02  -2.138294308332e+02 
4 1 -2.607467669315e+02  -1.347272833305e+02  -9.946626223410e+01 
5 1 -5.248361100068e+01   2.722409296756e+02   5.339853265651e+02 
6 1 -7.374755662127e+01   2.038711429234e+02   3.141361124546e+02 
7 1  6.877552439985e+01   1.818770404788e+02  -6.708814105905e+02 
8 1  7.077413813058e+01   3.403639210824e+02  -1.208566047794e+02 
8
Step 47000
1 1 -5.807895704737e+02   6.221281691584e+02  -3.485855103304e+01 
2 1 -1.325038185749e+01  -4.208592368630e+01   4.516676894972e+02 
3 1 -1.616181108662e+02  -2.715996159132e+02   9.479429091506e+01 
4 1 -1.090623248594e+02   7.532131765083e+02  -1.516464659513e+02 
5 1 -2.694496109303e+02   2.368035943482e+02   3.507714608712e+02 
6 1 -1.291837724347e+02   1.908599581133e+02   4.299511295948e+01 
7 1  1.251091185213e+02  -4.593274524153e+02  -1.164204119761e+02 
8 1  1.403434094719e+02   2.726361761358e+01  -2.352038357043e+02 
8
Step 48000
1 1 -5.204682888390e+01   8.215168073341e+02   3.662643567776e+02 
2 1  2.757505452272e+02   1.992167924588e+02  -1.799845590101e+02 
3 1  1.776838793215e+02  -4.912469986228e+01   2.057315762730e+02 
4 1 -9.496595036881e+01   5.414655817582e+02  -3.443655903073e+02 
5 1 -4.846077549804e+01   4.562929335685e+02   3.016593416792e+02 
6 1 -1.747973366066e+02   2.211387001781e+02   2.596012119468e+02 
7 1 -1.524156628043e+02  -1.898587481401e+02   4.530608814563e+02 
8 1  3.526599601930e+02  -1.116649426365e+02  -3.407125177583e+02 
8
Step 49000
1 1 -1.831762148634e+02   6.840575982486e+02  -2.490464529251e+02 
2 1 -2.338549758671e+02  -2.182676938995e+02  -3.100512041773e+02 
3 1 -4.454015044965e+02   5.337823250942e+02   5.444233831646e+02 
4 1 -6.865494363131e+01   6.674880899144e+01   1.391266973786e+02 
5 1 -1.411649558871e+02   7.537410529546e+02   1.606395404643e+02 
6 1 -1.024240032028e+02  -2.982875308334e+00  -5.057582665764e+01 
7 1  1.693765765986e+02  -2.482066462194e+02   2.717119402766e+02 
8 1  2.004161897494e+02  -2.877258868613e+02   1.185373971035e+02 
8
Step 50000
1 1  3.826844051635e+02   8.029651329049e+02   3.731921420748e+02 
2 1 -1.215768303918e+02   3.368066921915e+02  -4.992378624735e+01 
3 1 -3.240269223604e+01  -1.917589018392e+02   4.614470574329e+02 
4 1  1.244795078475e+02  -6.246285556063e+01  -3.183489988840e+02 
5 1 -9.602443341655e+01   3.199070018055e+02  -8.565623155535e+01 
6 1 -6.339980262533e+01   2.385808012847e+02  -1.637734892432e+02 
7 1  2.085589861598e+02  -3.372502805266e+02   1.870942484868e+02 
8 1 -7.754374087083e+01  -2.888222170396e+02   7.466814081828e+01 
8
Step 51000
1 1  2.847075808513e+01   3.707272394240e+02  -1.523655181306e+02 
2 1 -6.900194548045e+01   3.947093058795e+02  -2.720761235799e+02 
3 1 -1.279836122437e+02  -1.633562353320e+02   3.667265315474e+02 
4 1  3.020526086237e+02   1.672797059166e+02  -1.766542799793e+02 
5 1  7.664251317937e+01   2.226473984010e+01   5.486371575918e+02 
6 1 -1.966889526281e+01   2.688643606586e+02   1.369558298674e+02 
7 1 -9.360555285333e+01  -2.497467887004e+02   1.251946738681e+02 
8 1  3.097227815194e+02   4.958195189661e+01   1.939557123013e+02 
8
Step 52000
1 1 -3.841334522991e+01  -1.793360570603e+00   1.302974854674e+01 
2 1  4.559977969068e+02   3.323164805236e+02  -8.935295091642e+01 
3 1 -6.166122875439e+01   1.777766291854e+02   3.802524657144e+01 
4 1  3.175352328604e+02  -6.514045492322e+01  -1.568541609464e+02 
5 1 -2.391068726209e+02   2.042272446377e+02  -2.122263371147e+02 
6 1 -6.206833634991e+01   2.156123705236e+02  -1.843335688187e+02 
7 1 -6.896704022493e+01  -6.887042973102e+02   1.621699074251e+02 
8 1  2.052706190943e+02  -1.807550131554e+01   4.040128760315e+02 
8
Step 53000
1 1  6.038063328869e+01  -2.578141382085e+02  -2.349165841345e+02 
2 1  6.312076236636e+02  -4.728446329989e+02  -3.470849323160e+02 
3 1  2.730959598238e+02   1.850181585697e+02   3.200776977751e+02 
4 1 -1.062430356944e+02   4.925359308231e+01   1.001936791042e+02 
5 1  2.107514050459e+01   2.744760351726e+01  -9.117846385356e+01 
6 1 -5.549936710973e-01   2.153377232535e+02  -3.024139458421e+02 
7 1 -1.446029749399e+02  -7.122964699536e+01   9.597806460766e+01 
8 1 -1.518274775150e+02   1.592367243517e+02   3.731004021438e+02 
8
Step 54000
1 1 -1.755021794083e+02  -2.683075099759e+02   4.581570491054e+02 
2 1  4.416267968906e+02  -7.398173905075e+02  -2.833772487062e+02 
3 1  1.741808068693e+02   1.227841180575e+02   3.260303725895e+02 
4 1  8.281555906118e+01   2.246166342887e+02  -1.501442256929e+02 
5 1 -2.326355496871e+01  -7.410451675926e+00  -5.267731070384e+01 