8
Step 0
1 1 6.71506416711662238e-03 6.49167539545825092e-04 7.55905881043412303e-03
2 1 6.80187192990081620e-03 -7.14529034888187076e-03 2.80830314334164525e-05
3 1 1.35396276929549840e-03 3.61703981870044712e-03 5.96866704044804290e-03
4 1 3.90406982196184627e-03 -5.04516060726575063e-03 5.82195370525365099e-03
5 1 -7.94816050768093821e-03 4.04532223788039817e-03 -3.88696007944830738e-03
6 1 1.09199370770444292e-02 1.25505674945915018e-02 -1.18654993095461160e-02
7 1 1.56996477508037388e-03 5.52022631513145005e-03 -6.57327494686332260e-03
8 1 2.28840723532842873e-03 7.40181392547528683e-03 -2.57480642140814515e-04
8
Step 1000
1 1 9.27585295784761027e-04 -6.49289271771257091e-03 -1.12236422308975656e-02
2 1 1.69517293324632267e-03 -3.17234724563694552e-03 -6.18140690633783331e-03
3 1 -6.30740912665866005e-03 -1.02493742487242967e-02 -1.14521573419638922e-02
4 1 -6.81272383275500576e-05 5.61875978718377397e-03 -1.29401762695667967e-03
5 1 9.95401874985063842e-03 -7.66106722723209656e-03 -6.94507653566238392e-03
6 1 -9.21594717437520736e-03 -6.11110352881575995e-03 1.49040922326380450e-02
7 1 -4.43433426087611049e-03 -5.94145720058203083e-03 7.19395186116736189e-03
8 1 -8.00314682489518259e-03 -8.50547196588599154e-03 5.42534210244978096e-03
8
Step 2000
1 1 -6.78316163725961423e-03 6.63252498557966204e-03 1.19319153963374867e-02
2 1 -8.56217376091849419e-03 8.92676044195120193e-03 1.23586304945075189e-02
3 1 1.08680880872781219e-02 1.44893773878110987e-02 1.62488089258869609e-02
4 1 -2.06780743188965214e-03 -4.84443462031659746e-03 -4.93479983044463940e-03
5 1 -8.98485304639974960e-03 8.52552749968744569e-03 1.25617475932050769e-02
6 1 4.72175136439387244e-03 -6.82504467364958593e-04 -1.30648071652844731e-02
7 1 3.04273961094538893e-03 4.08863777404533130e-03 -4.32342953286398140e-03
8 1 1.01951064209291706e-02 8.15431496712949212e-03 -6.73444746042387108e-03
8
Step 3000
1 1 8.85441152430449518e-03 -1.61569135462964492e-03 -1.10007960525151261e-02
2 1 1.12325117003137000e-02 -9.38398635065400451e-03 -1.47205469616567067e-02
3 1 -1.24101725701037148e-02 -1.66904525170011309e-02 -1.80082943670833440e-02
4 1 4.21243285366194268e-03 2.26181238389929493e-03 9.15301775779100643e-03
5 1 6.79196486608432421e-03 -7.87209884333866898e-03 -1.30635570068042446e-02
6 1 -4.89826480938586220e-04 6.76539542615154418e-03 8.96106148592588740e-03
7 1 8.94166243248998801e-04 -3.51799142745810390e-03 -1.43347111787096512e-03
8 1 -9.08028519990916778e-03 -5.80433241032042319e-03 5.49615824221795935e-03
8
Step 4000
1 1 -6.77759965077543141e-03 -5.62219132504087823e-03 8.54231817175357851e-03
2 1 -9.49686436796524751e-03 5.89526183092170010e-03 1.30097882173043269e-02
3 1 1.06652084576481510e-02 1.58287946485610384e-02 1.59619237539491941e-02
4 1 -6.26744800062629080e-03 1.25052076985236716e-03 -9.61810790678328635e-03
5 1 -3.13748068619499340e-03 5.86200129625688397e-03 1.05082662011925110e-02
6 1 -1.47589337087783283e-03 -1.06033673925181732e-02 -4.20264463733780770e-03
7 1 -4.86249061254956805e-03 4.43693505514570086e-03 7.29083343437166367e-03
8 1 4.76071430703819531e-03 1.47467263787214855e-03 -3.67858853117135950e-03
8
Step 5000
1 1 1.76562826427024782e-03 1.16782832776653606e-02 -5.71529278656565057e-03
2 1 4.50031011069837363e-03 -8.89013857153954064e-04 -8.70740729726671332e-03
3 1 -6.44756344499867670e-03 -1.24822724378192539e-02 -1.08619039884682179e-02
4 1 7.84798940199733959e-03 -4.84207147984800582e-03 5.77141002616688662e-03
5 1 -1.81174865475096977e-03 -3.82339301899920891e-03 -7.30004498668192746e-03
6 1 -6.00157579382620040e-04 1.15985904271082400e-02 9.47430555214484252e-05
7 1 6.41328768056862852e-03 -6.75576214974291621e-03 -1.06217735834653777e-02
8 1 8.33369097422063509e-04 4.33562486288466102e-03 3.64930606645529195e-03
8
Step 6000
1 1 4.48315240028413463e-03 -1.39531580018231096e-02 3.41299123635919804e-03
2 1 2.78836090888731018e-03 -4.20688764830008579e-03 3.58918643501959962e-03
3 1 8.43169804918488365e-04 7.68730642042435037e-03 3.61184620797827234e-03
4 1 -8.46430418323350538e-03 7.80191224288699289e-03 1.59255749824692427e-03
5 1 8.15939844623253356e-03 2.42847771603672607e-03 4.69249172891033316e-03
6 1 6.23392787078792636e-03 -9.87665971070396040e-03 3.00676353238866307e-03
7 1 -4.44360609996054864e-03 9.41376034744815203e-03 1.00222162070149664e-02
8 1 -5.95786828151237315e-03 -1.04805030854973613e-02 -6.39544516880954320e-03
8
Step 7000
1 1 -9.95129488965702802e-03 1.09194994900804615e-02 -2.49130093040409503e-03
2 1 -1.17579200518661952e-02 8.37957656759782607e-03 6.97203886720353366e-04
3 1 5.42575757191870664e-03 -2.65486458784793032e-03 4.66027442896056136e-03
4 1 7.73116373564821519e-03 -9.64589927872385941e-03 -1.06162389050014315e-02
5 1 -1.43643295307287859e-02 -1.71151558584642415e-03 -2.55241653413131259e-03
6 1 -1.29738539162861221e-02 5.96634158668358193e-03 -5.22687715275396356e-03
7 1 -1.11097615567442155e-03 -1.07531029836831458e-02 -5.24147043694803659e-03
8 1 8.96933983461660998e-03 1.45364720953258201e-02 1.14073982579489530e-02
8
Step 8000
1 1 1.15282757666788725e-02 -2.98556996921144719e-03 3.61107162663900109e-03
2 1 1.87039062161238369e-02 -9.07216112885083324e-03 -1.76796784430853873e-03
3 1 -1.12347170997439249e-02 -8.42854314461290209e-04 -1.16160228995072067e-02
4 1 -5.32334356033002578e-03 9.52903727322415919e-03 1.66499809162103732e-02
5 1 1.59060327401602912e-02 1.10730862368525903e-03 2.96081457023409636e-04
6 1 1.58918629091616206e-02 -6.51184036802473143e-04 6.74003541196983424e-03
7 1 8.39154169357578077e-03 8.57531378955740664e-03 -2.44022801397936846e-03
8 1 -8.11510940961838317e-03 -1.18108046388125231e-02 -1.51996698851669509e-02
8
Step 9000
1 1 -7.31672067054464203e-03 -4.68613758228148512e-03 -6.05454788929742430e-03
2 1 -1.70559877289695461e-02 4.28600639501419862e-03 -9.34128249360183000e-04
3 1 1.40112972722699243e-02 4.48113218959606398e-04 1.20249246892287550e-02
4 1 2.43121446606017321e-03 -7.21544417762449292e-03 -1.56535817572967285e-02
5 1 -1.01895500722508220e-02 -6.49734541900832486e-04 1.29041212333030919e-03
6 1 -1.13717695603632631e-02 -2.64414422618576951e-03 -7.15625378460884795e-03
7 1 -1.21577064515838700e-02 -3.26533437648733084e-03 8.34336405364224237e-03
8 1 3.86781635474140904e-03 1.60665942540317241e-03 1.31732791871882436e-02
8
Step 10000
1 1 2.21487101936416846e-03 7.96491385998283202e-03 8.64312914979477841e-03
2 1 1.04499393730391344e-02 8.35785357953189355e-04 5.26602930568031546e-03
3 1 -1.59568563696794279e-02 2.87153394816148108e-03 -7.25944697357747484e-03
4 1 -1.28013523917451500e-03 5.70434577519258849e-03 1.15124351605111596e-02
5 1 3.77121193410091338e-03 8.37681437488893045e-04 -2.31385470721234051e-03
6 1 3.97662816056706947e-03 1.87480127996393891e-03 8.47132807530437577e-03
7 1 1.13591829025920625e-02 -2.04164575777985875e-03 -9.83510695787126639e-03
8 1 -2.10697560166494955e-04 1.03705721852800480e-02 -8.33189814208356444e-03
8
Step 11000
1 1 1.11043338283780863e-03 -7.11674917521821961e-03 -1.16470249472116604e-02
2 1 -1.85321556692001773e-03 -5.67830830918348781e-03 -7.98036054607695680e-03
3 1 1.73349317998640270e-02 -8.20624504671991530e-03 1.01564872486668823e-03
4 1 2.91683971695637454e-03 -6.82868174840130238e-03 -7.55724461555740221e-03
5 1 1.67042667786573298e-03 1.01416625916891739e-03 2.47152865760859319e-03
6 1 3.20154373114297456e-03 9.64031944828404926e-04 -9.72446578054527409e-03
7 1 -7.95083328435814037e-03 6.88524917974672832e-03 7.77514433001319852e-03
8 1 -1.96643819413384966e-03 -1.97971083459430354e-02 2.09311582517407273e-03
8
Step 12000
1 1 -1.36156150888387391e-03 2.74285372550764654e-03 1.35735525004883981e-02
2 1 -5.83892652721890518e-03 8.75284873940821925e-03 6.83830822670070983e-03
3 1 -1.64318856932637973e-02 1.19222353695579049e-02 4.11266007448626673e-03
4 1 -5.98874940045959238e-03 8.76585862733420332e-03 4.79430016972901517e-03
5 1 -4.56595767345178462e-03 -3.89144225979766185e-03 -8.07659106236550766e-04
6 1 -6.93286375644209217e-03 -4.14920126383671890e-03 9.15793798843216739e-03
7 1 3.43235852936423207e-03 -1.03018900318096272e-02 -3.06684610681577218e-03
8 1 3.21692986506024944e-03 2.17466425212510077e-02 4.32988038675886054e-03
8
Step 13000
1 1 -1.04502664951624667e-03 3.48401008621240099e-03 -1.45425089016034837e-02
2 1 1.04626771103907383e-02 -1.01827295472260992e-02 -1.74248953071357688e-03
3 1 1.41768507331082837e-02 -1.22985388955324983e-02 -7.04493085621945691e-03
4 1 8.18031806207313202e-03 -1.04961299138685640e-02 -5.14632925966612611e-03
5 1 3.83772020380610760e-03 5.81868604842541992e-03 -2.14285459281538101e-03
6 1 5.33488286420711385e-03 5.88182130078473107e-03 -6.47291753741099495e-03
7 1 -1.05930434869106697e-03 1.17706812149886847e-02 -1.39589917909954068e-03
8 1 -4.31798929505941391e-03 -1.62754412504991300e-02 -8.46962443070652972e-03
8
Step 14000
1 1 5.67456085173267087e-03 -8.76957286006809292e-03 1.49849175720348886e-02
2 1 -1.20072539062500115e-02 1.05003245597470665e-02 -5.69465970425473127e-03
3 1 -1.14277677876902673e-02 9.77458080912559785e-03 8.14635482983204831e-03
4 1 -8.10044523736624250e-03 1.19488554148881130e-02 8.99857080423610393e-03
5 1 -4.67816172739598688e-04 -6.41925721681578781e-03 5.41047834907995399e-03
6 1 1.15855397437188276e-03 -5.47882197088802193e-03 2.23047819521611772e-03
7 1 2.56094419949512040e-03 -1.14190866962514785e-02 3.30987614786475755e-03
8 1 5.81272829178853829e-03 5.83895266498966458e-03 8.84445054648815530e-03
8
Step 15000
1 1 -1.09080142767379543e-02 1.02465013774699215e-02 -1.45474617599047965e-02
2 1 1.06308191215833490e-02 -9.75148582172240090e-03 1.29846104163454292e-02
3 1 8.06611628409376405e-03 -4.84999869494031916e-03 -7.86182118820528963e-03
4 1 5.42681060332282205e-03 -1.27886982186880323e-02 -1.39164139036385883e-02
5 1 -3.37051848777718092e-03 5.68999677596688028e-03 -7.32600259373978810e-03
6 1 -9.62736762009672176e-03 3.10664264753832998e-03 2.24199128385561787e-03
7 1 -6.97652988921554362e-03 9.64994024136658218e-03 -2.26372581280141674e-03
8 1 -7.33541825142385896e-03 5.98232334819361663e-03 -5.47161305297514007e-03
8
Step 16000
1 1 1.39313730877282434e-02 -7.15470781421657410e-03 1.19564289456646419e-02
2 1 -7.39384774594916989e-03 7.73358651251667209e-03 -1.78583603812724825e-02
3 1 -4.33684719020901218e-03 -1.66232043444797099e-03 6.30123804406187982e-03
4 1 -9.62815032031657495e-04 1.17498764956573496e-02 1.53393336849518454e-02
5 1 5.60359407318731292e-03 -2.34168944381307927e-03 8.16851978116227631e-03
6 1 1.52743300460374282e-02 3.27263814038803922e-04 -4.99757268098452011e-03
7 1 1.10099443222545709e-02 -6.65028537677617246e-03 -2.29695841575571006e-04
8 1 7.83044245231678468e-03 -1.43782824177037406e-02 2.05079504868460832e-04
8
Step 17000
1 1 -1.26452203483162998e-02 1.63709925413987856e-03 -7.00556923576720666e-03
2 1 4.25261015004698307e-03 -4.46558185663217637e-03 1.75868834631842282e-02
3 1 1.81658236473542802e-03 6.29271194272930726e-03 -4.23573683530134582e-03
4 1 -2.76165881984099127e-03 -8.19126709579063271e-03 -1.03042836582997108e-02
5 1 -4.84583547598043361e-03 -2.87138178531445420e-03 -8.01259489745222847e-03
6 1 -1.43253068037845765e-02 -3.19222460451350524e-03 4.29228591669008480e-03
7 1 -1.11885025004571717e-02 3.11042552851113286e-03 1.82050419594597746e-03
8 1 -6.38686419321072771e-03 1.48363344143685738e-02 3.62530526375010520e-03
8
Step 18000
1 1 9.55504102142535131e-03 2.08237740006730941e-03 2.80756770657256778e-03
2 1 -3.13056945591189432e-03 1.29786170069659014e-03 -1.35976745888983751e-02
3 1 -1.67629425875405469e-03 -6.95669918869925175e-03 3.37900981383812849e-03
4 1 3.69636992061498455e-03 4.63404730330527898e-03 1.62611853571391612e-03
5 1 1.01969726770614780e-03 6.78680741646132870e-03 7.14446981661836806e-03
6 1 8.78103170740031184e-03 4.47000629812445947e-03 -2.71379821482062853e-04
7 1 8.82344723955562175e-03 -1.07197858934623557e-03 -1.12302274737090019e-03
8 1 4.53904375529556002e-03 -9.17118738053127394e-03 -3.89810009621631252e-03
8
Step 19000
1 1 -7.27314061849095635e-03 -3.84180291124424419e-03 -1.04662542684618191e-03
2 1 3.49514321368660404e-03 7.25925922330682193e-04 8.77507352310578741e-03
3 1 3.51542381652841492e-03 3.47269532594815218e-03 -3.63296898962076195e-03
4 1 -1.43553638681962240e-03 -1.79002540177435943e-03 7.45616368768615371e-03
5 1 3.71063818965388335e-03 -9.21648816829307230e-03 -5.79233330185582700e-03
6 1 -2.31475088049159063e-03 -4.24827707936482370e-03 -5.02318861861518386e-03
7 1 -5.32043139887361689e-03 -2.61844952483010333e-04 -1.22457306009318961e-03
8 1 -3.95440512569038803e-03 1.97605430491202541e-03 1.31495376543803218e-03
8
Step 20000
1 1 5.38312098090298636e-03 4.11321533289429886e-03 1.75300615504038557e-03
2 1 -4.12617207666662097e-03 -5.85359281557176043e-04 -3.21409231368880713e-03
3 1 -6.07082274331336488e-03 2.78845246431527836e-03 4.31515283733090605e-03
4 1 -3.46913475357215825e-03 -1.11705594759737236e-03 -1.35593854423809446e-02
5 1 -7.95993437317361018e-03 9.90528815557695751e-03 4.34178957373697848e-03
6 1 -2.71585364460675237e-03 2.90935154536040019e-03 9.24493822603885719e-03
7 1 2.19893181829071936e-03 1.54067283797286567e-03 3.88537231575928699e-03
8 1 5.09243919004956098e-03 3.71838981403598782e-03 2.50684431280186757e-03
8
Step 21000
1 1 -4.32991244340851910e-03 -3.54930342442977623e-03 -3.87899434330963352e-03
2 1 4.88038524972236962e-03 -2.84005926050237773e-03 -2.07633710262437529e-03
3 1 7.75216545297174441e-03 -9.66620218837048288e-03 -4.47921807186595251e-03
4 1 9.00393171976823260e-03 3.72250767679106883e-03 1.31893847734147231e-02
5 1 1.01619676403636484e-02 -8.53507012657270248e-03 -3.31270120713555863e-03
6 1 4.37338591437374299e-03 -1.07219209274952900e-03 -9.96978391646541340e-03
7 1 -8.63272865492548287e-04 -2.70354962646873883e-03 -5.23822310671889085e-03
8 1 -7.90035293844025890e-03 -5.05639358609709291e-03 -5.94436861490461529e-03
8
Step 22000
1 1 4.13854712010766190e-03 3.18743853748170748e-03 6.51449048813876504e-03
2 1 -6.06027165493232614e-03 7.92134375999044467e-03 5.79320720219321777e-03
3 1 -7.30408057439642117e-03 1.48446799803622527e-02 3.10543927289656492e-03
4 1 -1.25409490664667896e-02 -5.46886492152045059e-03 -6.11145026716561086e-03
5 1 -9.72978089996226654e-03 5.28637056321922417e-03 3.23118044471552715e-03
6 1 -2.31195808475523302e-03 -7.29588116010574284e-04 6.54727931358855923e-03
7 1 1.84273626273266113e-03 3.36717599929797643e-03 4.49631702549809463e-03
8 1 1.13850225807737224e-02 1.34184877288372412e-03 7.94861448122523469e-03
8
Step 23000
1 1 -3.54238794266028200e-03 -4.66549794190286495e-03 -1.02555837949218510e-02
2 1 7.72044836054477067e-03 -1.13847807190868740e-02 -7.28122444743534072e-03
3 1 4.61764830775811957e-03 -1.72888097928815543e-02 5.25076630552224772e-04
4 1 1.27780393680459840e-02 6.51093622923865425e-03 -5.26239830753427902e-03
5 1 7.45448812991545903e-03 -1.28892871685072781e-03 -4.23485805858452198e-03
6 1 -2.03314581336959486e-03 2.13858386874713575e-03 -1.73492258890924647e-04
7 1 -4.77416778598835443e-03 -3.74442838354566328e-03 -2.23988207149209036e-03
8 1 -1.46318926648442097e-02 6.04483180285934375e-03 -8.61546449999499309e-03
8
Step 24000
1 1 1.79728726550482782e-03 5.46649626475366902e-03 1.35348024320976010e-02
2 1 -8.80650017981753769e-03 1.30822370477888840e-02 7.54062867079197292e-03
3 1 7.82997998126173440e-05 1.60663780388682308e-02 -6.90489130595322523e-03
4 1 -9.40600737408832724e-03 -6.53464638145195755e-03 1.63106538254721295e-02
5 1 -4.66627821159344008e-03 -2.25167481866054208e-03 5.34795189519196492e-03
6 1 5.38068041706826327e-03 -3.02952151221965804e-03 -6.75140241120407696e-03
7 1 8.09074903743823431e-03 3.75773247402227950e-03 3.58495740963359641e-04
8 1 1.61978372890039420e-02 -1.40962650490698890e-02 8.27178599060647557e-03
8
Step 25000
1 1 2.72218423602975249e-04 -3.02899992830988393e-03 -1.30533408199155418e-02
2 1 7.91493146398652113e-03 -1.21441407517376473e-02 -6.72481585265782052e-03
3 1 -5.26307410002081668e-03 -1.03482165222833454e-02 1.41289825695762768e-02
4 1 2.69400646863735948e-03 4.69271875720575580e-03 -2.01896664428527842e-02
5 1 2.45974652489173084e-03 4.05085468075002102e-03 -5.24202064847867615e-03
6 1 -4.90568211616543119e-03 3.04301349879516209e-03 1.05880734218271148e-02
7 1 -9.40606119692614234e-03 -2.98483250366381701e-03 -6.28532753953520498e-04
8 1 -1.39200018860820077e-02 1.83287837177663893e-02 -6.91684734367938037e-03
8
Step 26000
1 1 -2.13204916572341894e-03 -2.06279846563698493e-03 8.18158595500444695e-03
2 1 -4.55090009838633042e-03 8.07082448144201721e-03 5.22088627127471634e-03
3 1 8.75761203932060896e-03 2.54658986161694113e-03 -1.86110954934137034e-02
4 1 4.21217059196493139e-03 -9.36111187240833294e-04 1.40517799087381962e-02
5 1 -1.17992508000326949e-03 -4.01741516926018040e-03 3.31449375066460725e-03
6 1 8.78138190361984843e-04 -1.46429625051326087e-03 -8.99866906451936635e-03
7 1 7.94687088284794056e-03 1.13635258148810591e-03 3.54596588508453202e-03
8 1 7.89099819904443001e-03 -1.59384814639301764e-02 5.41767186042720495e-03
8
Step 27000
1 1 3.55898234781498648e-03 7.99505934944911255e-03 -4.25324621264396409e-04
2 1 -5.39406695926925332e-04 -3.52958147203866765e-03 -3.99653418954016779e-03
3 1 -9.77377204208040168e-03 3.26619868135225207e-03 1.83875824127230150e-02
4 1 -7.70335798074993187e-03 -3.47294703710547764e-03 -2.52898098168629964e-03
5 1 1.64957090113962895e-04 3.21488806297078825e-03 -3.43271709929700395e-04
6 1 4.02213955895111032e-03 -2.05793304007957168e-03 2.44618543206211918e-03
7 1 -5.05221486399839818e-03 1.31620048772159446e-03 -7.71984470902766125e-03
8 1 -7.58581586147852511e-04 8.22012366471676012e-03 -4.32577255757639334e-03
8
Step 28000
1 1 -3.50410610522451822e-03 -1.06734655697463925e-02 -6.03505513540405093e-03
2 1 4.84221562296528654e-03 1.85835386036009988e-03 3.52205708214620378e-03
3 1 7.55032812918010436e-03 -4.89028672578810820e-03 -1.31012826907847737e-02
4 1 6.24310463032509092e-03 7.06574243819366177e-03 -7.50223029690456986e-03
5 1 1.29368266231258758e-03 -2.35485639700528304e-03 -1.80470913094528244e-03
6 1 -6.71978665169187771e-03 5.67361517817644052e-03 4.84823769075496715e-03
7 1 2.34466623601732463e-03 -3.29771915846654605e-03 1.05784165772738782e-02
8 1 -4.24756241790253970e-03 8.47627225818118322e-04 3.25513809933639792e-03
8
Step 29000
1 1 1.51660458120067413e-03 8.94472160771981641e-03 8.20317211153988660e-03
2 1 -5.84873369737933576e-03 -4.06037792735053880e-03 -3.15872105084078880e-03
3 1 -2.79815407282550752e-03 2.70181190375130961e-03 3.64091311830876509e-03
4 1 -1.26218413596740548e-03 -9.05264497576507496e-03 1.16999741033530485e-02
5 1 -3.15403445272732568e-03 1.95427608870578709e-03 2.09753265616561798e-03
6 1 6.24905535648109106e-03 -8.19761877065229398e-03 -9.06948925946566079e-03
7 1 -1.10519444569144153e-03 4.32084422997410216e-03 -1.03730052218565724e-02
8 1 5.38635012733378743e-03 -7.31315853118239510e-03 -1.95832810487289646e-03
8
Step 30000
1 1 -2.98025627920584717e-04 -3.77927254255184522e-03 -6.14165102924097393e-03
2 1 4.46160075879976740e-03 8.76609291684718982e-03 2.98875120402324274e-03
3 1 -2.08543429686014773e-03 1.06891831575009651e-03 6.13290339577633910e-03
4 1 -4.45420650066120135e-03 9.69244226159187913e-03 -9.70289641765843119e-03
5 1 4.68419906442130683e-03 -2.36119875655943024e-03 -1.28850523722843472e-03
6 1 -3.69028738292938828e-03 9.68535538959778425e-03 1.01864990218627320e-02
7 1 8.62371823481680646e-04 -4.00818428188850009e-03 7.57049297687609722e-03
8 1 -3.73171283360072608e-03 9.95296108965923639e-03 5.75116079020296248e-04
8
Step 31000
1 1 1.54572065984530382e-03 -4.37416442152887934e-03 2.45637267078977145e-04
2 1 -2.03176713550919791e-03 -1.30197575391039193e-02 -2.99872280751297760e-03
3 1 5.78750996874239677e-03 -3.65678252374973317e-03 -1.36311629956324051e-02
4 1 8.88844692569005362e-03 -8.75657181764123368e-03 3.56243523144257872e-03
5 1 -5.01780727439051551e-03 3.66044659494609449e-03 3.81824968536357461e-04
6 1 7.04698517432466144e-04 -9.32279922113570317e-03 -9.40405505864914601e-03
7 1 -5.45416245121625102e-04 2.84505344020470749e-03 -3.46747051318734793e-03
8 1 1.08470551922125393e-03 -9.54999469651234174e-03 3.53774098675476703e-04
8
Step 32000
1 1 -5.09731538672652043e-03 1.31711127438721692e-02 8.67366336212633052e-03
2 1 -6.57064229852271503e-04 1.44418659295368051e-02 2.30745372123575872e-03
3 1 -7.25392726806361240e-03 3.14422922145295766e-03 1.72726413579163823e-02
4 1 -9.89259427879258385e-03 6.17900240496309545e-03 4.02272541715266180e-03
5 1 3.99453050486190449e-03 -5.50564701431002172e-03 -5.81224996557096912e-04
6 1 1.42621643399579970e-03 6.01754090357581230e-03 7.62209150053384538e-03
7 1 -4.72449115248378443e-04 -1.63458900485346516e-03 -1.49689479657000340e-04
8 1 9.94065811942378922e-04 7.11986285690173904e-03 -9.68131577812210409e-05
8
Step 33000
1 1 9.13854864009983406e-03 -1.82961051593500887e-02 -1.75611097925043452e-02
2 1 2.37947888591867867e-03 -1.08411406700699760e-02 -4.83871013985414961e-04
3 1 5.59309269600782692e-03 -1.05483598521344309e-04 -1.59962159283050277e-02
4 1 5.04648828851868205e-03 -2.55346420179267076e-03 -9.09886370749036187e-03
5 1 -1.97086736926473452e-03 7.06316475785286665e-03 3.03485930998287747e-03
6 1 -2.12111327407258927e-03 9.31986130249950031e-04 -5.91011771065489896e-03
7 1 2.30046932700849437e-03 1.06147124900100951e-03 1.38467653832874860e-03
8 1 -1.55422743555152154e-03 -4.12304339961372043e-03 -1.92788044221524151e-03
8
Step 34000
1 1 -1.09591965761104068e-02 1.52496896027843696e-02 2.22766047879059542e-02
2 1 -2.58946698461377496e-03 2.52478974023189742e-03 -1.95866187388129762e-03
3 1 -6.47576745477350499e-04 -3.02286032102062202e-03 9.27679139942970063e-03
4 1 5.98954800830820127e-03 -4.45361555382078130e-04 7.84511294788636446e-03
5 1 2.36888478426960686e-04 -6.61366583781629498e-03 -7.61184518163974741e-03
6 1 1.86999912601320466e-03 -9.70596993692687988e-03 5.22132021665971946e-03
7 1 -4.53649381735808134e-03 -1.21303185604816426e-03 6.33427666860017719e-04
8 1 3.33004358698928116e-04 1.93417563402138357e-03 5.00457090870835408e-03
8
Step 35000
1 1 9.13162732931025768e-03 -4.43825526307062897e-03 -2.07731546537857775e-02
2 1 1.43439349016017325e-03 4.65314563499259412e-03 3.55036711370072637e-03
3 1 -5.08851644005232657e-03 3.70955057323692390e-03 -9.52529594700301293e-04
4 1 -1.85673386451726367e-02 1.11118630601314051e-03 -1.04445893591614152e-03
5 1 -1.78805790527684390e-04 3.41920917569871544e-03 1.26920955224210930e-02
6 1 -2.01303181329208708e-03 1.64877643456298219e-02 -5.71549744451827716e-03
7 1 6.54058947758117976e-03 1.76735944495452638e-03 -4.52324747312957218e-03
8 1 2.16148341120221297e-03 -1.75312018384037494e-03 -7.29641533040289308e-03
8
Step 36000
1 1 -4.40830792033217525e-03 -8.08284674834482131e-03 1.25753051403974248e-02
2 1 5.26431996114329749e-04 -6.77876243040284598e-03 -2.84271604528379485e-03
3 1 8.61790252017667104e-03 -2.99608494386778296e-04 -4.67392319150654496e-03
4 1 2.63070373142786397e-02 3.62971614148075187e-04 -6.46380076000249802e-03
5 1 2.19847297993348107e-03 1.77024211036214021e-03 -1.46295966846138725e-02
6 1 3.29258776623007985e-03 -1.85064450472882287e-02 5.88273146982202285e-03
7 1 -7.62805111290173164e-03 -1.67727956875790432e-03 7.58531751152502921e-03
8 1 -5.01662868293526517e-03 3.09154257040244670e-03 7.09385799114545853e-03
8
Step 37000
1 1 -3.23713227813638609e-04 1.39584010401034853e-02 -9.58713845483903952e-04
2 1 -1.40294075950595800e-03 3.93841247416362641e-03 -2.16707802595874672e-04
3 1 -8.50968850364893815e-03 -5.26283229291587672e-03 5.55776228755908500e-03
4 1 -2.43417959038915131e-02 -2.52358931874637924e-03 9.70112983630008578e-03
5 1 -4.77852694757799346e-03 -6.87090264835055198e-03 1.03573735097055534e-02
6 1 -4.93595422674174365e-03 1.40482621165880922e-02 -4.20770451115498861e-03
7 1 7.45402640668738330e-03 -1.99791548898961153e-05 -7.83576123755448488e-03
8 1 7.44526343883733163e-03 -4.06514671701286353e-03 -4.04713530367317893e-03
8
Step 38000
1 1 2.07268505778842845e-03 -1.21474287468688012e-02 -7.44669405305065698e-03
2 1 -7.59736922622307334e-04 1.12201208746540312e-03 5.27986656511771763e-03
3 1 5.46378668419847304e-03 1.02360223066790459e-02 -1.77766069528276682e-03
4 1 1.74736324650442421e-02 3.86028235609951319e-03 -9.40122060787630665e-03
5 1 7.50877233727779026e-03 1.00153232012660381e-02 -2.44082424339650767e-03
6 1 6.91080826258121204e-03 -6.18347633703729156e-03 1.02467745044764152e-03
7 1 -7.18405613935055830e-03 1.85919114794767500e-03 5.98226997788686623e-03
8 1 -9.98824321851556757e-03 3.31281559064900430e-03 3.72191210922497853e-04
8
Step 39000
1 1 1.44548089885761770e-04 4.69672389360906075e-03 1.08853784002357311e-02
2 1 4.65841563101021452e-03 -4.83186717662511048e-03 -1.04855432691465054e-02
3 1 -2.98889404774593543e-03 -1.23759178886865273e-02 -4.38884695075402592e-03
4 1 -9.14430701290185576e-03 -3.67243673845282651e-03 7.13727170550635098e-03
5 1 -1.01089626214804339e-02 -1.17729793664409031e-02 -6.74881683257839027e-03
6 1 -8.36552955046137095e-03 -1.54307842382275752e-03 3.10130935276465994e-03
7 1 8.80195923077367430e-03 -5.13031029780878275e-03 -4.48517324659053213e-03
8 1 1.42366360350442665e-02 -1.04842632566470428e-03 2.25023519597974475e-03
8
Step 40000
1 1 -4.33882684432113780e-03 4.93565407623679665e-03 -8.18408815745023943e-03
2 1 -9.39876412710085977e-03 4.96583549146060576e-03 1.42674605383272240e-02
3 1 1.86310865102766953e-03 9.60238358317374620e-03 1.06040003480790158e-02
4 1 -1.00562680678898233e-03 2.65712801262311515e-03 -3.34068600300273114e-03
5 1 1.22892392213563833e-02 1.12352925773868111e-02 1.59047735187126289e-02
6 1 7.75909444635724480e-03 7.49789444493518219e-03 -7.40214638804435106e-03
7 1 -1.14586242058946856e-02 9.16343646123501943e-03 4.21383078489872675e-03
8 1 -1.87496504264404243e-02 -2.40405344719415125e-03 -2.74262123232759487e-03
8
Step 41000
1 1 7.34933970893105609e-03 -1.32634894219240667e-02 9.37274920139197920e-05
2 1 1.27971679297471264e-02 -1.03994484009625418e-03 -1.59509091841563873e-02
3 1 -2.22952871168913790e-03 -2.53729382664283310e-03 -1.39071842083537851e-02
4 1 9.46471348770768633e-03 -6.28975551153654658e-04 1.11411704206862438e-03
5 1 -1.31835239104611396e-02 -7.53784964663427922e-03 -2.08882847739680147e-02
6 1 -4.09548779762330169e-03 -9.09641354917437722e-03 1.00013435736394495e-02
7 1 1.25185603730947111e-02 -1.16224644573376442e-02 -5.13154794781555974e-03
8 1 1.96109424673116366e-02 5.24298703419173121e-03 5.26096612086739243e-04
8
Step 42000
1 1 -7.18060993151756893e-03 1.60695448187560125e-02 8.57611537134958871e-03
2 1 -1.10286992077664389e-02 -4.80091815952303838e-03 1.45101260037810865e-02
3 1 3.34350664425138834e-03 -4.24929387941194812e-03 1.18043808616830545e-02
4 1 -1.14008724157149480e-02 -1.39982480983152024e-03 -2.41359545000598402e-03
5 1 1.22581946117476439e-02 1.40454696636711481e-03 1.71332089152060676e-02
6 1 -1.37582624912611462e-03 5.42041158889894695e-03 -8.92475522185457934e-03
7 1 -9.27204333290289687e-03 9.76583967797711033e-03 5.46168863875491281e-03
8 1 -1.36493767446688868e-02 -5.58143655037807770e-03 3.12701777429246017e-03
8
Step 43000
1 1 4.36554371439917648e-03 -1.27699166977648729e-02 -1.16234962246122911e-02
2 1 5.06897996060903279e-03 9.70151885207193830e-03 -1.22934350177010803e-02
3 1 -3.74716895344105695e-03 5.93091188259065906e-03 -6.55909293409543195e-03
4 1 7.68978450555341149e-03 9.52021782928929965e-04 6.13995614608660832e-03
5 1 -1.12217023944058501e-02 3.62319109986062714e-03 -7.39152531982871508e-03
6 1 5.18901679306497509e-03 3.06509118773782316e-04 4.87168300611500946e-03
7 1 3.54649526668866181e-03 -5.21999439899570403e-03 -4.40565476413933097e-03
8 1 5.04972970475142495e-03 3.60325079957479104e-03 -5.91416072054008497e-03
8
Step 44000
1 1 -1.84259701252722607e-03 8.66461622086165707e-03 8.98415484299938845e-03
2 1 1.42617236030027818e-03 -1.17647036114246883e-02 1.13770118101400482e-02
3 1 2.73791270868159898e-03 -2.48140839283234136e-03 1.96962371016733574e-03
4 1 -1.30358889270748763e-03 1.14023891594626677e-03 -8.34449328203153498e-03
5 1 1.16131499333721900e-02 -6.30464232495190225e-03 -2.14476792627179332e-03
6 1 -6.21025872667885313e-03 -3.44707144709356563e-03 -9.41743719326893175e-04
7 1 1.30476484369605760e-03 -1.77626754675778151e-04 1.05260394263577525e-03
8 1 1.78569322909007664e-03 -6.18388303596587420e-04 7.18850687435397279e-03
8
Step 45000
1 1 1.14323584481548410e-03 -4.90718830135793236e-03 -3.39618698339685205e-03
2 1 -6.37684105849339010e-03 1.04431182594614952e-02 -1.04935434355336622e-02
3 1 -2.91131490874102950e-04 -3.59060200369419429e-03 7.90453380601803643e-04
4 1 -4.95987305544330365e-03 -3.40062531721637253e-03 7.00822947961138223e-03
5 1 -1.23456148550542145e-02 6.53570659527716400e-03 9.00278202100675273e-03
6 1 4.60665219179074662e-03 1.95073064901829995e-03 -1.37674721589445162e-03
7 1 -3.53971908408066711e-03 5.23410922748173465e-03 4.29850607099184837e-03
8 1 -4.69124246986871250e-03 -1.92812070970007558e-03 -6.97622999115978144e-03
8
Step 46000
1 1 -2.64114576876817555e-03 1.39701762685938901e-03 -3.57496979378732786e-03
2 1 9.24563182645094309e-03 -7.18234610685727134e-03 9.80349563646325597e-03
3 1 -3.35741114139208405e-03 9.40667931245518264e-03 -1.55677666274815839e-03
4 1 8.32039308214883346e-03 4.66623372394416643e-03 -2.02946470414252416e-03
5 1 1.19654222287076013e-02 -4.79929634781169415e-03 -1.24037505103174357e-02
6 1 -9.76861768137602228e-04 3.92361728850033377e-03 2.08571902541122584e-03
7 1 2.55064832824031858e-03 -8.38874473513537798e-03 -1.02265994257887231e-02
8 1 3.02604274286599794e-03 3.01088773118923401e-03 5.98981383020213542e-03
8
Step 47000
1 1 6.31874159566063898e-03 1.36386003576399305e-03 9.14663811855888007e-03
2 1 -1.04432230318009245e-02 4.53621101370625928e-03 -9.95915068662992300e-03
3 1 6.66198042981465399e-03 -1.15760336428284150e-02 1.94338869344334278e-03