8
Step 0
1 1  1.415085037505e+02   6.322842375918e+01   2.202084624276e+02 
2 1 -2.778435042451e+02  -3.138218497296e+02  -8.843962058332e+01 
3 1  1.406920592888e+02   5.562010864580e+02  -4.954259929110e+01 
4 1  1.569920420371e+00  -5.249952349313e+02   2.995119120833e+02 
5 1  1.220757322056e+02   2.716465050181e+02   3.363187634147e+01 
6 1 -2.998829803954e+01  -8.923183578220e+01   8.023695311866e+01 
7 1  3.201539551545e+02  -4.262352332529e+02  -2.720823248011e+02 
8 1 -3.041367549446e+02   3.931877029547e+01  -3.949575748481e+02 
8
Step 1000
1 1  1.857686759330e+02   2.798843701233e+02  -4.687056646983e+02 
2 1  7.203803017498e+01   1.995726410082e+02  -2.294460990093e+02 
3 1 -5.868931386962e+02  -3.443773562880e+02   2.042703226190e+02 
4 1  3.513390419219e+02  -5.659482965899e+02  -4.777760795270e+01 
5 1  6.019950294920e+01  -1.890841078079e+02   7.518660078149e+01 
6 1 -2.504765043429e+02  -2.463488360899e+01  -1.269062227076e+02 
7 1 -3.769056292577e+02  -1.996508298164e+02   3.030500849373e+01 
8 1 -4.554916416044e+02   3.940587386459e+00  -2.360049414568e+01 
8
Step 2000
1 1 -5.384602259115e+02   5.937983193437e+02   2.223590899935e+02 
2 1  5.179971883479e+02   2.398149982358e+02  -5.513320047914e+02 
3 1 -1.747458962726e+01   3.196575714560e+02   2.114866613529e+02 
4 1  7.361275583588e+02   6.671093386884e+02   2.734255468929e+02 
5 1 -5.377603381609e+02  -5.186198578172e+01  -1.753661659441e+01 
6 1  4.616523853892e+01  -3.739966501107e+02   7.574599200267e+00 
7 1 -2.180494929685e+02  -8.255084149368e+01  -4.852211380939e+02 
8 1 -1.725137714977e+02  -7.492875300331e+01  -2.329891171324e+02 
8
Step 3000
1 1  2.057071272861e+02  -1.290179792969e+02  -3.576283202007e+02 
2 1  2.793108773738e+02  -4.082606027005e+02  -4.755771377891e+02 
3 1 -4.840843195244e+02   4.141485612137e+02   3.783697688148e+01 
4 1 -1.708711838835e+00  -3.612577283564e+01   2.309669054190e+02 
5 1 -1.623106816140e+02   2.103044820562e+02   4.578396895190e+02 
6 1 -3.376556369795e+02  -3.718920710889e+02   2.176922613508e+02 
7 1  2.494605104763e+02  -9.994081169850e+02  -2.195363326796e+02 
8 1 -3.079900297244e+02  -7.152240570500e+02  -7.045755437279e+02 
8
Step 4000
1 1  3.794233621421e+02  -6.922440140253e+02  -1.273886472013e+02 
2 1  3.250189003673e+02  -1.204260862160e+02   1.541213909526e+02 
3 1 -4.568382791275e+02   1.529006368309e+02  -3.541835466425e+02 
4 1 -4.248964991534e+02   6.916447027163e+02  -9.266037636591e+01 
5 1  3.250892187349e+02  -1.407958400038e+02  -2.757822371955e+02 
6 1  1.398506464076e+02  -3.189538504857e+02  -1.238289550370e+02 
7 1 -3.154294306745e+02   7.334872119169e+00  -3.293361098968e+02 
8 1  9.085886048689e+02  -1.565720347663e+02   1.786921017287e+02 
8
Step 5000
1 1  6.656747898633e+02   1.924738061467e+02  -5.830699717874e+02 
2 1 -1.974586047109e+00  -4.864369516605e+02  -3.827672737753e+01 
3 1  1.328951969559e+01   5.056032368691e+02   2.688387092827e+02 
4 1  6.895970828718e+01  -4.791644515384e+02   1.217646751748e-01 
5 1 -1.593159017301e+02   1.674079437151e+02   8.638103554343e+01 
6 1 -1.978843336971e+02   6.237009127804e+01   1.896641036296e+02 
7 1  2.007177886976e+01  -1.180261220447e+02  -4.762997559539e+02 
8 1 -6.236535897089e+01  -1.192270451600e+02   2.195915097348e+01 
8
Step 6000
1 1 -2.122873420090e+02   6.299551241678e+02  -7.715122019728e+01 
2 1  2.416958952854e+02   5.517730126794e+01  -5.633898303483e+02 
3 1 -1.357717088613e+02  -9.887015503776e+01   1.843508168189e+01 
4 1  3.039012830303e+02   3.105738396005e+02  -1.613766826578e+02 
5 1  6.286150881965e+02  -4.973678264236e+00   2.073794375532e+02 
6 1  1.553229681221e+02   3.982819561523e+02   8.418003814634e+01 
7 1 -1.956106072337e+02  -1.416473566581e+02  -3.674477442054e+02 
8 1 -6.160263242189e+02   2.451432563291e+02  -2.026823848526e+02 
8
Step 7000
1 1 -7.662535941280e+01   2.959213387541e+02  -8.188964859016e+02 
2 1  2.060779536304e+02  -3.106275293318e+02   3.499081488826e+02 
3 1  5.756706377911e+01  -2.317480711804e+02  -3.448309354132e+02 
4 1  5.631224429665e+01   4.844398367545e+02   1.030966071732e+02 
5 1 -2.400189640752e+02  -1.958836156452e+02  -3.895570871540e+01 
6 1  2.966630606549e+02   1.075408970818e+02   3.344144587572e+02 
7 1 -7.198917782227e+01  -5.503410789868e+02  -5.987875499692e+02 
8 1 -2.696687457577e+02  -1.171708947709e+02   5.511048613251e+02 
8
Step 8000
1 1  1.516771880599e+02  -3.925488917341e+02  -2.932592978298e+00 
2 1  2.075065225020e+02  -2.165500046689e+02  -2.595929975357e+02 
3 1 -2.736575879733e+02  -4.473226751136e+01  -1.067802670851e+02 
4 1  2.533591526487e+02   3.721314448097e+02  -1.053588527726e+02 
5 1  3.948654166725e+02  -2.618226829075e+01  -1.936356844912e+02 
6 1  2.198735538188e+02   4.453004749159e+02  -2.165553724127e+02 
7 1  6.991747661239e+02  -3.676224610268e+02  -1.166666775752e+02 
8 1  7.710421837562e+01   1.738648177937e+02   1.459243660316e+00 
8
Step 9000
1 1  7.080612470056e+00  -1.095087771815e+02  -2.944217673445e+02 
2 1  2.849007698568e+02  -5.301744331706e+02  -7.168661679866e+01 
3 1  2.086787063227e+02  -2.947610887745e+02   6.744781659875e+01 
4 1 -2.736769768528e+02   8.936726856066e+01  -1.232361715613e+02 
5 1  1.592693131454e+00  -9.181758506600e+01  -4.695569760922e+02 
6 1  8.130870204431e+01   1.679763316030e+01   7.185730277033e+02 
7 1  3.760200199384e+02   1.961874486003e+02  -1.516350795915e+02 
8 1 -1.553005074893e+02  -2.841207896228e+01   2.243856933073e+02 
8
Step 10000
1 1 -1.682636979529e+02   6.724519477244e+02  -7.900380395077e+01 
2 1  4.122659457644e+02  -3.717279624407e+02   3.572123524733e+02 
3 1 -2.694256114539e+02   2.366878944141e+02  -3.894084353894e+02 
4 1  7.854350534930e+02  -7.706002620338e+02   2.891867118802e+02 
5 1  8.310945117670e+02   9.553997504162e+02  -8.028677700821e+01 
6 1  7.725454060141e+01   5.041902472001e+02  -8.660133790537e+01 
7 1 -4.033727809230e+02   6.606500209273e+02  -3.612757014603e+02 
8 1  9.605362802503e+01   1.464240337224e+02  -3.166397046214e+02 
8
Step 11000
1 1 -3.287121321230e+02   5.480018170837e+02   1.059192438682e+02 
2 1  3.637486090102e+02  -1.427961086669e+02  -6.553653145589e+02 
3 1 -2.735409706895e+02   2.884359089428e+02   3.732526869089e+02 
4 1  6.551464173599e+02  -1.099248397730e+02   3.710793861316e+02 
5 1 -2.360090055334e+01  -5.367985289876e+01  -2.463736469576e+02 
6 1 -1.959728003276e+02  -1.819892641742e+00   2.979684391396e+02 
7 1 -5.178861950018e+02   6.977924579017e+02   1.974535133919e+02 
8 1  3.630000335442e+02  -5.462904550050e+02  -9.840181736116e+01 
8
Step 12000
1 1 -4.971073371495e+02   7.260702475344e+01  -2.985655223429e+02 
2 1  3.389290064623e+02  -5.543771097461e+02   1.814160199247e+01 
3 1 -3.052360212931e+02  -2.228654619996e+02  -2.203294952801e+02 
4 1  3.947335927252e+02  -5.436663689059e+02  -5.763725976084e+02 
5 1 -3.391965869103e+02   5.116922782600e+02   2.717329814273e+02 
6 1  9.128517993517e+02  -1.560107781179e+02   5.742313789012e+02 
7 1  3.385362566155e+02   5.255742835962e+02  -3.321649101889e+02 
8 1  4.046726859729e+02   1.190447545094e+02  -5.043763851269e+01 
8
Step 13000
1 1  2.185113131036e+02  -7.350034337332e+02  -2.819838486862e+02 
2 1  3.094343964316e+02  -7.942423577301e+02  -1.205233434380e+01 
3 1 -4.494214866703e+02   1.148915427184e+02   1.164196073167e+02 
4 1  2.223561305433e+02   5.711939989733e+02   4.777435040034e+02 
5 1 -1.725958336182e+02   3.232502975611e+02   2.442842268140e+02 
6 1  3.343752312383e+02   3.305726551590e+02   2.564595581129e+02 
7 1  3.628514308169e+02  -1.724672053398e+02   1.388009787649e+01 
8 1  4.354574422171e+02   1.787170368136e+02   1.418159367282e+01 
8
Step 14000
1 1  2.838109805131e+02  -2.708498623821e+02   2.688890249064e+02 
2 1  6.770827735485e+02  -1.826826796171e+02   6.036669351711e+00 
3 1  2.356128671007e+01  -1.332405188897e+02  -1.758298488315e+02 
4 1  2.079945673034e+02   6.850677668699e+01  -1.373509664795e+02 
5 1  2.359327093777e+02   3.149781838310e+02   4.200417272092e+02 
6 1 -2.383192351689e+02   8.529351509515e+02   1.869817223038e+02 
7 1  4.566312708014e+01  -1.811390903792e+02  -6.858387932113e+02 
8 1 -9.032849463097e+01   5.295416348636e+02  -4.737311440460e+01 
8
Step 15000
1 1  1.734117309945e+02   1.228784834468e+02   1.481104178445e+02 
2 1 -1.769567133515e+02  -1.451952677444e+02   2.674438187018e+02 
3 1  8.706487272424e+01   5.166487772580e+02   2.070380564407e+02 
4 1 -2.151903346708e+02   5.783646112862e+01  -1.111683988139e+02 
5 1  6.739459730878e+02  -9.176786542621e+01   3.611638832338e+02 
6 1 -6.734513479344e+02   4.026399948870e+02   2.820536375114e+02 
7 1 -1.551069541620e+02  -1.483727388342e+02  -2.537379857709e+02 
8 1 -1.461956517785e+01   5.457567102057e+02   2.076033248819e+02 
8
Step 16000
1 1  5.446471087212e+02  -6.527015317407e+02  -1.703838075837e+01 
2 1 -6.823499032701e+01   3.458942855487e+02  -1.987801444670e+02 
3 1  5.824056563563e+01  -2.500730068867e+02  -1.709838009629e+02 
4 1 -3.360037597667e+02   2.434304228222e+02   4.042840456752e+02 
5 1  2.121649840790e+02   5.871149030862e+01  -1.429459113098e+02 
6 1 -5.174328125536e+01   6.249135527216e+02   6.280094467625e+02 
7 1  5.608196790439e+02  -4.834699124745e+01  -6.199811830477e+02 
8 1  1.018469192347e+01  -3.670433972618e+00   1.451003865886e+02 
8
Step 17000
1 1  9.136768420105e+01  -6.491588005606e+02  -1.665095079860e+02 
2 1 -7.102235347169e+01  -5.561500197297e+02   1.756365187707e+02 
3 1 -2.655544820995e+02   1.123440690814e+02  -4.087141746311e+02 
4 1 -7.372989570722e+01  -9.595048256204e+01  -8.804741997579e+01 
5 1 -1.859848421216e+02   2.785560902819e+02   5.584613535544e+02 
6 1  1.912269688112e+02   2.709635750097e+02   2.629511309360e+02 
7 1 -1.776311672510e+02   7.129506709842e+01  -2.280447999031e+02 
8 1  6.818166933750e+02  -2.872341248616e+02   1.079839008350e+03 
8
Step 18000
1 1  6.202077347102e+02  -1.402964455233e+02   4.522227949279e+02 
2 1  2.944345187769e+02  -7.921647569824e+02   6.305372333993e+02 
3 1  2.188248037848e+02  -5.845849762422e+01  -2.319684301640e+02 
4 1  1.955314218692e+02   6.365799664234e+02  -3.857589780345e+02 
5 1  9.912882690914e+00  -1.970258183658e+02  -3.398041841219e+02 
6 1  1.484557145724e+02  -1.616022904537e+02   3.813567265126e+02 
7 1 -1.867787869288e+02   5.707537862432e+02  -5.243402774227e+02 
8 1 -5.007262416946e+02   8.672144059729e+01   2.216146082843e+02 
8
Step 19000
1 1 -4.532564709616e+02   2.599890497524e+02   6.123916246963e+02 
2 1  8.283359722682e+02   3.047700232778e+02   4.759352428663e+02 
3 1  1.631742538516e+02   6.995658961345e+01   9.748678693904e+01 
4 1  4.563693488303e+02   3.970949218575e+02  -4.803540948685e+01 
5 1 -7.384220047244e+02   7.542112586804e+01   1.965467731771e+02 
6 1  4.823322894411e+02  -7.003249602477e+01   5.724368392796e+02 
7 1 -7.037079264234e+02   3.818782951186e+02  -4.822799065290e+02 
8 1 -4.890042537628e+02   2.210898871193e+02  -4.432765061128e+01 
8
Step 20000
1 1 -7.053009272895e+01   3.679567672710e+02   2.119556404127e+01 
2 1 -1.959269823639e+01  -1.247240683207e+02  -1.352016650178e+02 
3 1 -2.900050320382e+02  -5.087932588687e+01  -1.883762263336e+02 
4 1 -2.500342852326e+01  -4.596806950058e+02  -6.641888164963e+02 
5 1  2.985920023625e+02  -1.810457201444e+02   2.375355351216e+02 
6 1 -1.876838413892e+02   1.511121803586e+02   4.510128710978e+01 
7 1 -5.992285113276e+02  -1.093273407263e+02   2.497700700455e+02 
8 1  5.444415622740e+01   4.490183483944e+01   4.799855977047e+02 
8
Step 21000
1 1 -1.460956809641e+02  -3.245084487972e+02   1.268210629479e+02 
2 1 -4.257990643808e+02   2.450235173936e+02   2.758964306012e+02 
3 1 -2.955541361477e+02  -1.614771516331e+02  -1.620880355988e+02 
4 1  1.513474361374e+02  -5.058859359081e+02  -3.082282369448e+02 
5 1  2.500236327943e+01  -1.606290180156e+02  -6.997222021959e+01 
6 1  1.792562707639e+02   4.057873188946e+02   5.518630964768e+02 
7 1  4.658417933085e+02   2.872595462733e+02   5.079526233451e+02 
8 1 -2.094803934299e+02  -9.498176691674e+01   1.438184564675e+02 
8
Step 22000
1 1  2.782173261589e+02  -4.138249351690e+02  -1.520642941201e+02 
2 1  2.599130402343e+02  -3.909153381314e+02   5.160042440711e+02 
3 1  2.518516361369e+02   2.756521308276e+02  -6.968220302958e+01 
4 1 -1.453564772395e+02  -2.471115115970e+02  -4.357816213833e+02 
5 1 -3.941087175485e+02  -2.191669227054e+02  -1.770046793442e+02 
6 1  6.002282256277e+00  -2.913041749187e+02   2.442937114646e+02 
7 1 -6.325735751006e+02   4.114290055950e+01   2.787167939099e+02 
8 1  3.117384856380e+02  -6.624453863747e+01  -1.761625079844e+02 
8
Step 23000
1 1  2.659219298794e+01   5.871161433010e+02   6.820876082163e+02 
2 1 -3.608271630641e+02   3.083233884552e+02   5.523298815189e+02 
3 1  5.722791535957e+02  -3.534887784410e+02  -2.608261185220e+02 
4 1 -5.016260323509e+02  -7.975568796961e+01  -3.579471343568e+02 
5 1 -7.259357544644e+01  -1.551956746932e+01  -5.604801418921e+01 
6 1 -2.469332892612e+02  -1.038521175765e+02   2.457058869644e+02 
7 1  1.031837966214e+02  -1.575532165647e+02  -2.642483752678e+02 
8 1 -6.828677566232e+02   6.744965462820e+02   2.268656518044e+02 
8
Step 24000
1 1  3.346261277032e+02   5.921084569796e+02  -1.689819475379e+02 
2 1 -4.345406161731e+02   2.472685946404e+02   5.291326106795e+02 
3 1 -3.218449150671e+02   1.704591115096e+02  -1.833410867257e+02 
4 1 -1.643221291793e+01  -1.015814174664e+02  -1.870138834230e+02 
5 1 -4.664413596319e+02  -5.596936416008e+02  -1.545621866324e+02 
6 1 -3.566293669359e+02   6.449761276860e+01  -1.656905915665e+02 
7 1 -2.504287746161e+02   1.278809149628e+02  -4.632636791079e+02 
8 1  2.955573281433e+02  -3.279791758055e+02   6.808176619556e+02 
8
Step 25000
1 1 -7.815587210410e+02   6.718397422644e+02  -1.256626319878e+02 
2 1 -4.284020135908e+02   3.021764287253e+02  -3.858288142546e+02 
3 1 -4.473704897026e+01  -5.875426466307e+02  -1.315032774402e+01 
4 1 -2.165208683973e+02  -8.670480164776e+01  -5.059417849511e+02 
5 1 -1.444364198780e+02  -7.986706932643e+02   2.578762406480e+01 
6 1  3.139777639988e+02  -3.068149384239e+02   1.003413518447e+03 
7 1  1.384647336370e+02  -1.923297701212e+02  -2.322729924657e+02 
8 1 -5.610674129174e+01   8.373004491623e+02   4.651727225011e+02 
8
Step 26000
1 1 -2.313979978743e+00  -4.548330318940e+02   2.199860744822e+01 
2 1 -3.439898777657e+02   4.242520965905e+02  -1.298249558800e+02 
3 1 -1.000361488783e+02   6.040154998427e+01   2.004594269372e+02 
4 1  1.011467178938e+02  -2.957412908569e+02  -3.966143637986e+02 
5 1 -5.676202729352e+02  -7.173354905429e+02  -1.449057421628e+02 
6 1 -5.471391010496e+02   2.877109168109e+02   5.123256678432e+01 
7 1  5.029922857651e+02  -7.200739239483e+02  -1.194150356540e+02 
8 1  9.168680720158e+01  -7.361968678337e+02   5.714230368337e+01 
8
Step 27000
1 1  3.933934828658e+02   2.721951079847e+02   4.584852554152e+02 
2 1 -4.990634031132e+01   5.901861560704e+02   1.542644075793e+02 
3 1 -5.457298239523e+02   4.877390095282e+01   3.797656840404e+01 
4 1 -5.924115821867e+02  -1.000496039315e+01  -8.736722699003e+01 
5 1 -2.156095961547e+01   1.164090487614e+02   4.713311186918e+02 
6 1 -3.506027680106e+02   2.931171113577e+02  -2.611978521689e+02 
7 1  1.864871419471e+02  -6.647815846674e+01  -6.968196493599e+02 
8 1  5.990455513331e+02  -2.785267947313e+02  -7.677557696241e+01 
8
Step 28000
1 1 -7.139369399180e+02   1.424787054236e+02  -1.689180446277e+02 
2 1 -3.512969244592e+02   2.247442566790e+02  -4.690765650250e+02 
3 1  3.754602282234e+02   3.353658329352e+02   2.816589280982e+02 
4 1 -3.530468155988e+02  -1.025809364278e+02   7.363872564539e+01 
5 1 -7.142043250054e+02   5.002344078436e+01  -4.607763342875e+02 
6 1 -8.867369549009e+01  -4.138840134904e+02   7.776287539782e+02 
7 1  3.060591019973e+02  -5.685133599546e+02   8.573469899748e+01 
8 1 -3.458654939205e+02   1.025635037008e+02  -6.814350186656e+02 
8
Step 29000
1 1 -9.420024464299e+01   5.508395318717e+02   2.892140985862e+01 
2 1 -1.142760862448e+03   5.453148411372e+02   2.308097959791e+01 
3 1  3.894817431581e+01  -8.354003322045e+00   6.239905869974e+00 
4 1  4.374362807189e+02  -2.703984157104e+02  -2.414728150036e+02 
5 1  1.566839831083e+02  -2.599960039229e+02   4.563219123673e+02 
6 1  2.720311172468e+02  -6.503901074762e+02  -1.647782792351e+02 
7 1 -6.643240096127e+02   8.494297491295e+02  -2.848862296652e+02 
8 1 -1.777037709243e+01   3.392207831922e+01  -3.514294580965e+02 
8
Step 30000
1 1 -2.220139542789e+02  -3.571046565954e+02  -5.017260302043e+02 
2 1 -4.640991805773e+02  -1.649932848645e+02  -3.249008581205e+02 
3 1  7.206788923347e+01   2.157503760905e+02   8.739093733459e+01 
4 1  3.657898955531e+02  -4.983035388938e+02   2.766567994544e+02 
5 1 -2.050923888839e+02   1.259539921733e+02  -1.313450751260e+02 
6 1 -2.186247209678e+02  -5.235411741319e+02   4.223667872040e+02 
7 1 -5.140426787456e+02  -3.578498143475e+02  -5.560162459024e+02 
8 1  5.759447185249e+02  -1.398471315903e+02   9.827873522195e+01 
8
Step 31000
1 1 -3.064830105996e+02   4.191347209633e+01  -1.594845147645e+02 
2 1  4.395194022233e+02  -3.983638705063e+01   1.012544427283e+02 
3 1 -4.489558982701e+02  -9.419825104430e+01   1.898425551323e+02 
4 1 -2.965670549681e+01   1.639379935705e+02  -9.203443275395e+01 
5 1  1.550957878729e+02   2.780419837911e+02  -5.679194674919e+01 
6 1  5.900697446487e+02   3.051265312139e+02  -9.255238365954e+01 
7 1 -2.031490068571e+02  -2.033274525260e+02  -2.682632518402e+02 
8 1 -2.924166461464e+02  -5.013600502591e+02  -4.124633096045e+02 
8
Step 32000
1 1 -1.538290009151e+02  -6.086910193992e+02   1.953158692865e+02 
2 1 -2.770131515598e+02  -1.513898605605e+02  -3.140287704501e+02 
3 1  8.208200044241e+01   5.329545012161e+02   8.025438126051e+02 
4 1 -1.178103052439e+02   9.337305116974e+01  -1.183129183153e+02 
5 1  3.562338326459e+02  -2.104335794326e+02   1.691931733230e+02 
6 1 -1.806256778031e+02  -2.962842347974e+02   4.820335942986e+01 
7 1 -2.228376661061e+02   4.025095710041e+01  -7.693076894012e+02 
8 1 -2.178103338169e+02   9.043826076619e+02  -4.271870657415e+02 
8
Step 33000
1 1 -2.100656068723e+02   5.405266538576e+02   8.763316627163e+01 
2 1 -3.363268237755e+02   1.329837980110e+02  -1.007775144926e+01 
3 1  5.052845994964e+02  -3.026049110344e+02  -1.931272569045e+02 
4 1  2.870726531100e+01  -4.887829375765e+01  -1.446973104265e+02 
5 1  7.485346369402e+02  -2.125192959718e+02  -7.238491612638e+01 
6 1 -2.885443459662e+02   1.052661201030e+03  -3.533930252535e+02 
7 1 -5.371411350704e+02  -3.181877720633e+02  -4.834318102861e+02 
8 1 -1.236200035104e+02   6.861876646878e+02   3.313819188103e+02 
8
Step 34000
1 1 -6.653368783454e+02  -4.374253956524e+02  -7.455749665618e+00 
2 1 -2.007349110134e+02  -3.806913885597e+01  -5.226219519307e+02 
3 1  3.108441882820e+02  -6.068742114361e+02   1.894162142161e+02 
4 1 -2.094772189437e+02   3.568705417493e+02  -7.670366897389e+01 
5 1  3.345598440166e+02  -6.469648976107e+02  -9.697691932808e+01 
6 1 -3.468178065465e+02  -8.180215811570e+01  -2.063010278245e+02 
7 1  7.299620907372e-01  -3.130127394618e+02   4.264199349267e+01 
8 1  1.680155765790e+02   2.982667729216e+02   2.626939441128e+02 
8
Step 35000
1 1  6.709753799703e+02   1.866751923855e+02   1.970879771777e+02 
2 1  6.789807683936e+01  -1.525543270645e+02  -1.695666416186e+02 
3 1  4.826826859489e+02   2.576453036615e+02   4.055952772641e+02 
4 1 -1.678463306661e+02  -1.301819527743e+02   2.442109631475e+02 
5 1  3.347610133859e+01  -1.320767933311e+02  -7.776191133029e+02 
6 1  5.632656172242e+02  -1.795183472581e+01  -3.283956288472e+01 
7 1 -4.818224796534e+01   2.218734175823e+02  -4.673183613254e+02 
8 1 -6.935442011853e+01  -9.986776810304e+01  -1.571737273592e+02 
8
Step 36000
1 1 -1.292219305222e+02  -1.221260838355e+01  -2.751314425418e+02 
2 1  3.679004664757e+02  -9.623649668719e+02   4.291730175216e+01 
3 1 -3.739346528402e+02  -1.415094254877e+02  -5.753010893416e+01 
4 1  8.717092542778e+01   8.879670475809e+01   2.617298115134e+02 
5 1  1.175965712510e+02   6.996443917330e+02   2.663095337937e+02 
6 1  1.718221127510e+02  -2.194356663405e+02  -1.958969139874e+02 
7 1 -3.835166689958e+02   5.150517209394e+02  -1.294601231592e+02 
8 1  3.020333765725e+02  -8.096824145824e+01   1.805680058407e+02 
8
Step 37000
1 1 -2.968165062896e+02   2.114387797716e+01   6.833771489794e+02 
2 1  2.134976705705e+02   7.014588680461e+01  -1.306738632684e+02 
3 1  4.534271766614e+02   3.957485927425e+02   4.005708265998e+02 
4 1  4.177937138145e+02  -4.234315663930e+02  -6.253715341998e+01 
5 1 -2.187206762529e+02   6.945456603073e+02  -8.358245199981e+02 
6 1  8.417570663532e+01   2.520321399662e+02   6.103867029867e+01 
7 1 -1.516194828907e+02   6.722432862735e+02  -7.435843503011e+02 
8 1  1.234150061076e+02  -1.622314098568e+02   1.077583805328e+01 
8
Step 38000
1 1  3.737081473440e+02   2.132674773187e+02   3.215630295525e+01 
2 1 -4.695311092985e+02   1.695341510655e+02  -4.445420166624e+02 
3 1  4.324068133073e+01   2.265981985033e+02   4.815058097897e+02 
4 1  7.384914923544e+01  -5.149751765295e+02  -8.604707036385e+01 
5 1 -5.173880694619e+02   4.788481564879e+01   3.530992911716e+02 
6 1  4.881656522136e+02  -3.480381203363e+02   1.937050488755e+01 
7 1  7.924171238267e+01   3.522687294178e+02   8.369108582178e+01 
8 1  4.023673222712e+02  -1.519998643060e+02   2.112623217952e+01 
8
Step 39000
1 1  4.230480314185e+01  -1.400475914841e+02  -9.391169433038e+01 
2 1  2.287392977949e+02   3.381321288148e+02  -4.481819835541e+02 
3 1  5.446877464588e+02   5.709807003751e+01   4.199435793370e+02 
4 1  3.722700362052e+02   1.729776112381e+02  -3.392061950942e+02 
5 1  5.742152634643e+01  -7.938859929326e+02   1.605574539961e+02 
6 1 -3.588808392093e+02  -3.883265478755e+02  -1.922136165582e+02 
7 1  2.361499681678e+02  -3.180528712248e+02  -3.357384385397e+02 
8 1  5.445203900661e+02   2.568789233210e+02   3.362694817120e+02 
8
Step 40000
1 1  6.574098560726e+02  -3.680128324572e+02   3.739691155668e+01 
2 1 -2.433466788835e+02  -5.115796275812e+01  -4.007793550102e+02 
3 1  2.549100403050e+02  -2.449402768790e+02   4.688481471302e+02 
4 1 -2.392393849236e+02   1.663821138569e+02   3.898901642748e+02 
5 1  1.148588186437e+02  -1.733024495064e+02   5.605775990469e+02 
6 1  2.544303416370e+02   3.079901405177e+02   3.527791194040e+02 
7 1 -8.701635691696e+01  -3.271957719984e+02  -4.218911093934e+02 
8 1  4.521232538098e+02   3.236831823631e+02  -1.197788953009e+02 
8
Step 41000
1 1 -4.995290458111e+01   2.015171959059e+02   2.505734287700e+02 
2 1  7.335810017712e+02  -1.398596758416e+02  -2.980284762179e+02 
3 1  2.914392466656e+02   4.118433117746e+02   4.312003629085e+02 
4 1  5.864061472262e+02   9.017883100400e+02   1.370686241645e+02 
5 1  1.657362277756e+02   2.454141786079e+02  -4.970410027729e+00 
6 1 -2.272827391401e+02  -9.504941991267e+01  -2.637986522969e+02 
7 1  2.722663664906e+02  -4.064870314828e+02   2.551697891549e+02 
8 1 -1.578886846241e+02   2.673253266871e+02  -5.466729244191e+02 
8
Step 42000
1 1 -1.870538413152e+02   6.851556382901e+02  -4.156637837029e+02 
2 1  6.338751555938e+01   1.088303557129e+01   1.570938516293e+02 
3 1 -3.134283015124e+02  -6.609294803804e+01   1.188618339016e+02 
4 1 -7.212165326931e+02   4.168518338471e+01   2.328784425704e+02 
5 1  4.467615439094e+02   6.060180491938e+01  -3.066111881246e+02 
6 1  5.879614542332e+02  -1.575030782858e+02   7.898966401782e+02 
7 1  2.852609895867e+02  -2.721670543103e+02  -3.057593217572e+02 
8 1 -1.100045605174e+02  -1.338673897594e+02   7.682894891242e+02 
8
Step 43000
1 1 -4.067856709247e+01   9.274424864565e+01   3.077760235297e+00 
2 1  3.167857071069e+02   5.138475595101e+02   5.775878905707e+01 
3 1  2.487235440376e+02  -4.712376460904e+01  -1.831060277143e+02 
4 1  4.745308601065e+02  -4.035462160011e+02   5.437601876077e+02 
5 1  4.112570726472e+02   5.032678952286e+01   1.858420542711e+01 
6 1  1.061916426662e+02  -5.364041219233e+02  -2.840304497824e+02 
7 1 -2.426156957604e+02  -2.837939078394e+02  -3.795650002512e+02 
8 1  5.042077912702e+02  -1.080380882008e+02   2.123170627989e+02 
8
Step 44000
1 1  4.268872704222e+02  -1.611927116854e+02   2.277788962767e-02 
2 1  3.566376360273e+02  -4.776972546051e+02  -7.128834403297e+02 
3 1 -3.523178491701e+01   2.029038699831e+02   1.214760789905e+02 
4 1  1.491565051764e+02  -5.913145746557e+01   3.659697314081e+02 
5 1  3.995563710794e+02   5.176427742670e+02   2.114801457846e+02 
6 1  2.809241663892e+02   6.143072034641e+01   6.747279362563e+02 
7 1  2.827553016458e+02  -1.186927935637e+02   1.116397229375e+02 
8 1 -5.733460446518e+02  -6.677872335649e+02   4.972979781270e+02 
8
Step 45000
1 1 -2.031838646543e+02  -4.719470116067e+01   4.745230352723e+01 
2 1  1.281975504034e+02  -5.244999134177e+02  -1.230400134721e+02 
3 1  3.169131921236e+02   2.016306848506e+02   6.783677427241e+02 
4 1 -8.721179002144e+01   5.898044879458e+02  -2.151811924747e+02 
5 1  5.161912435226e+01   6.481136183936e+02  -3.767115141981e+02 
6 1  6.389720153558e+02  -4.517355954263e+02  -3.904257153666e+02 
7 1 -4.019549975174e+02  -5.700329138342e-01  -3.657187120335e+02 
8 1  5.231194509005e+02  -5.099333957762e+02   8.468605679919e+02 
8
Step 46000
1 1 -2.897846312838e+02   4.431614785963e+02   3.640885913175e+02 
2 1  5.301660998487e+02   3.292370944661e+02  -1.665782132246e+02 
3 1 -8.750285645833e+02   1.561840798537e+02   2.595155168175e+02 
4 1  2.288225696832e+02   2.440218121008e+02  -3.304927091503e+02 
5 1  2.080636370085e+02   3.644165404010e+02   2.982591966320e+02 
6 1  1.817142445390e+02   3.094444304883e+02  -3.842483478723e+01 
7 1  8.420161204287e+01  -3.215220640716e+02   4.509266167996e+02 
8 1  1.239562917864e+02  -2.229730476434e+02   4.679656617273e+02 
8
Step 47000
1 1  3.330542567672e+02   2.325405263833e+02   5.448454930826e+01 
2 1 -4.920872908259e+02  -4.041413779450e+02  -5.810141793490e+01 
3 1  2.543300132128e+02   1.981811047207e+02  -8.023157927396e+02 
4 1  1.553228434828e+02  -4.506102954493e+02   2.460147254227e+01 
5 1 -1.910423977754e+02   1.241822160506e+02   6.502493310088e+01 
6 1  5.743409742954e+02   2.963355645553e+02   2.345188179518e+02 
7 1 -8.406524826022e+01  -1.501395938136e+01   2.259807199720e+02 
8 1 -1.967182106744e+02  -9.735711716861e+02   2.155283801034e+02 
8
Step 48000
1 1  5.060561817587e+01  -4.201921425068e+01   7.106576070588e+01 
2 1  3.248765274102e+02  -2.654499486162e+02   1.061556705393e+02 
3 1 -4.017838712778e+02   1.977825219968e+02  -3.547851390336e+02 
4 1  4.026929914193e+02  -5.297024865054e+02   2.505752786713e+02 
5 1  1.133251815309e+02  -2.751339708233e+02  -1.262372460954e+02 
6 1  1.201635748950e+02  -1.956062922232e+02   6.253326632797e+02 
7 1 -3.559593965316e+02   3.180180063175e+02   2.743243273711e+02 
8 1  3.337792954548e+01  -2.144916837379e+02   8.116172562682e+01 
8
Step 49000
1 1  2.433015554216e+02  -1.967825091895e+02   1.987728417666e+01 
2 1  1.617448031111e+02   9.255652504208e+01   4.331862703249e+02 
3 1  3.945525684774e+02  -3.232223953645e+02  -5.833680000416e+02 
4 1 -1.156944375214e+02  -1.696213500199e+02  -2.389565716668e+02 
5 1  1.274599558616e+02  -1.647916023009e+02  -1.791822086195e+01 
6 1 -4.832415178356e+02   1.544288407670e+01  -2.030080402503e+02 
7 1  7.076999259204e+01  -1.591410483715e+02  -2.569130436871e+00 
8 1  2.416777257081e+02   3.949938173670e+02   5.836763158742e+02 
8
Step 50000
1 1 -2.895247229999e+01   1.548655388343e+02   7.868581639633e+01 
2 1 -1.896460065786e+02   3.525242272712e+02  -2.025922309903e+02 
3 1 -2.968378431792e+02   3.594745365602e+02   1.599577959491e+02 
4 1  2.404221054886e+01  -2.448120584986e+01   1.241864561137e+02 
5 1 -3.236631207856e+02   2.050924194685e+02  -5.024746925181e+02 
6 1 -5.779593243259e+02  -4.435616155526e+02   4.402861003231e+02 
7 1  2.762877647775e+02   7.216629183744e+02   3.302968598405e+02 
8 1  1.501302629926e+02  -1.752390232638e+02   2.349401938584e+02 
8
Step 51000
1 1 -2.305343783143e+02   1.641595135629e+02   2.152540835384e+02 
2 1  2.242957415611e+02  -4.577486421657e+02  -2.206713262984e+02 
3 1  4.113721209024e+00  -5.783295770953e+02   2.777302894137e+02 
4 1 -6.739433368242e+02   2.344887600852e+02  -5.566024234568e+02 
5 1  3.394124098337e+01  -3.190839666836e+02   3.238813425692e+02 
6 1 -1.549674711098e+01   1.340843268413e+02   9.000248114154e+02 
7 1  8.622444361019e+01  -6.855299063883e+01  -7.101164661984e+02 
8 1 -4.784986651415e+02   3.954796625072e+02  -5.977736262358e+02 
8
Step 52000
1 1 -4.011258976172e+02   7.170460062893e+01   3.635200459151e+02 
2 1  4.281520566562e+02   3.348555588236e+02  -3.810558085668e+02 
3 1  8.746193470760e+02  -3.388251287692e+02  -3.644519283109e+02 
4 1 -3.687755493763e+01  -6.348784185641e+01  -1.495949737669e+02 
5 1 -3.026126074751e+02   2.329829173296e+01  -3.194755992329e+01 
6 1 -1.952410042295e+02  -1.251606299212e+02   3.537998608897e+02 
7 1 -1.885897519355e+02  -5.119565081498e+01   3.182325369259e+02 
8 1 -5.643872645304e+02   2.851996420820e+01   9.482592340673e+01 
8
Step 53000
1 1  1.422791368325e+02  -3.257837313657e+02  -9.490077806401e+01 
2 1  4.591929073922e+02  -7.685666516606e+02   2.252954859150e+01 
3 1 -7.084731555719e+02   2.939235045858e+02  -4.865282370839e+02 
4 1 -1.335408196899e+02  -8.553115050287e+02  -8.142186795846e+01 
5 1 -4.207236001068e+02  -4.051982515345e+02  -4.171241427497e+02 
6 1 -4.949022288506e+02  -3.524344388720e+02   4.636685899219e+02 
7 1  2.769945762904e+02   4.866277061770e+02  -4.267108101450e+01 
8 1 -5.607995474594e+01   2.237791122763e+02   2.748058266648e+01 
8
Step 54000
1 1  6.780252886463e+02   3.599070995132e+02   3.853256209752e+02 
2 1 -5.211650760861e+01   3.274732188302e+02   4.796958139226e+02 
3 1 -2.527335949897e+02   2.548433478404e+02  -4.215651259001e+02 
4 1 -6.155974391024e+02   8.113000512712e+01   2.024226143714e+02 
5 1 -5.278506104659e+02  -1.680959793554e+00   3.328825049231e+02 