8
Step 0
1 1 -5.146983603824e+02   1.434692463961e+02   2.272585503517e+02 
2 1 -6.268573224989e+01   2.545643563522e+02  -3.785437431381e+02 
3 1 -1.847062021339e+01   1.986147104538e+02  -1.553454428606e+02 
4 1  1.310098613687e+02   4.728752768686e+02   6.196589026359e+02 
5 1 -9.578247776891e+01   5.598454624399e+02   1.557104222487e+02 
6 1 -2.592674952319e+02  -3.716990633033e+02  -2.397761882235e+02 
7 1 -3.685740970401e+02  -2.079503254006e+02   4.084754334187e+02 
8 1 -2.312460964129e+02  -7.397459190730e+02  -1.725994513245e+01 
8
Step 100
1 1  6.819726348607e+01   8.675731009427e+01  -3.524694870676e+02 
2 1  4.246119552076e+02  -5.317982894437e+02  -4.554468343599e+02 
3 1 -4.572012664813e+02  -3.395222675398e+02  -1.847824955714e+02 
4 1  7.864423301657e+02   3.545964986609e+01   5.677108050904e+02 
5 1  6.057267933273e+02   3.153543717395e+01  -3.155384434002e+02 
6 1 -1.770004554978e+01   5.100254912360e+02   3.715094416369e+02 
7 1 -3.910020092176e+02  -5.819506015387e+01  -3.250269122826e+02 
8 1 -3.992747700356e+02  -3.989101634247e+02   3.505563262312e+00 
8
Step 200
1 1  5.271296448186e+02  -9.382564366788e+00  -3.622247697444e+02 
2 1  4.215314976740e+02  -5.690782443096e+02  -2.118378906022e+02 
3 1 -5.988723943660e+02  -3.889823713636e+02  -1.535088757903e+02 
4 1  5.145824621413e+02  -3.699387069946e+02   3.536963614263e+02 
5 1  3.869230003115e+02  -5.445801237498e+02  -5.524622796829e+02 
6 1  3.502758092021e+02   8.759860275875e+02   3.424513918427e+02 
7 1 -2.157610636408e+02   2.951997815882e+02  -5.066109355646e+02 
8 1 -2.415548391533e+02   3.281675995457e+02   1.362550347032e+02 
8
Step 300
1 1  3.917756259268e+02  -1.790667655545e+02   1.294885000628e+02 
2 1 -6.493757400719e+01   1.202963851399e+02   1.431558279625e+02 
3 1 -2.976581157718e+02   2.883070560887e+01  -6.301094606552e+01 
4 1 -3.165798120142e+02  -2.411701023687e+02   5.635724909510e+01 
5 1 -3.852134836049e+02  -5.607018753050e+02  -2.775568155444e+02 
6 1  4.174956420312e+02   3.185842669331e+02  -1.284708676627e+02 
7 1 -1.460638410157e+02   4.774206356929e+02   5.123984898976e+01 
8 1  1.725911251173e+02   5.297664411922e+02   2.932234127070e+02 
8
Step 400
1 1  1.432428339518e+01  -3.980871773562e+02   4.507053493369e+02 
2 1 -3.568959754304e+02   5.388210196493e+02   2.108776102921e+02 
3 1  9.920556500283e+01   3.019890921922e+02   1.821283213653e+01 
4 1 -6.752224419867e+02   1.449337933280e+02  -2.882069722059e+02 
5 1 -6.530812162161e+02  -1.026955383939e+02   1.688491765420e+02 
6 1  1.374420101619e+02  -4.495397980773e+02  -2.548659164993e+02 
7 1 -1.695838032952e+02   2.489227460545e+02   5.715481835751e+02 
8 1  4.801914785839e+02   5.472697837544e+01   2.125573616167e+02 
8
Step 500
1 1 -1.580241063680e+02  -4.597583649357e+02   2.228241621033e+02 
2 1 -1.565868466641e+02   2.256641579418e+02  -8.725789403764e+00 
3 1  2.896432874686e+02   1.505968166574e+02  -1.373880018704e+01 
4 1 -2.556129828799e+02   2.584352755170e+02  -5.471821194409e+02 
5 1 -1.058374035242e+02   3.103947799773e+02   2.989044575666e+02 
6 1 -2.674512803562e+02  -6.367654398341e+02   1.677421598083e+02 
7 1 -5.003720833713e+01  -1.901544743647e+02   4.369236726218e+02 
8 1  4.097307316823e+02  -3.879942112543e+02  -1.283362200734e+02 
8
Step 600
1 1 -1.111084728950e+02  -1.661114363518e+02  -2.905939266150e+02 
2 1  1.335296348019e+02  -2.770474329207e+02  -1.265421077992e+02 
3 1  2.732133085978e+02  -1.222497578261e+02  -1.291566093035e+02 
4 1  3.025585924792e+02  -3.096722223780e+01  -5.164514255246e+02 
5 1  5.612634732336e+02   3.118296532277e+02   6.240709524223e+01 
6 1 -5.315128407616e+02  -1.874227970808e+02   5.494965624502e+02 
7 1  2.610575778446e+02  -4.128023681596e+02  -1.492177920645e+02 
8 1  2.364144650039e+01  -1.834729506426e+02  -3.788037498974e+02 
8
Step 700
1 1 -1.004155885717e+02   3.497243318778e+02  -5.474523163974e+02 
2 1  6.024936072168e+01  -2.524989522090e+02   1.169190420754e+02 
3 1  2.234399412091e+02  -1.235255256577e+02  -1.223666140901e+02 
4 1  2.720470851689e+02  -3.433902238679e+02  -1.905951842794e+02 
5 1  5.610194054843e+02   1.426121480278e+01  -1.366560130222e+02 
6 1 -4.799254947906e+02   2.493853183145e+02   3.232525059254e+02 
7 1  4.970231151106e+02  -2.354536126216e+02  -4.907012752625e+02 
8 1 -3.349421094576e+02   4.190067437952e+02  -2.197324297411e+02 
8
Step 800
1 1 -1.967599892584e+02   6.305570916776e+02  -3.262068249068e+02 
2 1 -2.332786448318e+02   1.856576135555e+02   4.762730478333e+02 
3 1  2.150912405356e+02   1.291312112946e+02   1.249674973090e+02 
4 1 -2.191866677724e+02  -2.901890406405e+02   1.195754185520e+02 
5 1 -5.591471397272e+01  -1.893563533960e+02  -2.713296961023e+01 
6 1 -1.179541785403e+02   1.169374428693e+02  -2.847161135202e+02 
7 1  3.756737046545e+02   1.125729690036e+02  -2.583846810730e+02 
8 1 -3.595597847841e+02   6.269644867501e+02   1.950592286816e+02 
8
Step 900
1 1 -1.970209548187e+02   3.782682604449e+02   7.077151759510e+01 
2 1 -2.504606747880e+02   3.109848285473e+02   4.755421224161e+02 
3 1  1.399413903858e+02   2.638123487346e+02   4.269692852946e+02 
4 1 -4.121222909395e+02   3.959865160727e+01   1.341860893509e+02 
5 1 -5.357141345205e+02  -7.772491971649e+01   1.659664988806e+02 
6 1  3.417366690519e+02  -3.659679429134e+02  -5.560825552637e+02 
7 1 -2.769771924187e+01   2.865762622181e+02   1.429716800730e+02 
8 1 -9.318782591746e+01   1.427263384222e+02   3.840752107423e+02 
8
Step 1000
1 1 -2.092786723936e+00  -1.807755828914e+02   2.453318540759e+02 
2 1  1.285049868920e+02  -1.339223461778e+02   3.364484241560e+01 
3 1 -6.303326401407e+01   7.050257473327e+01   4.388026448080e+02 
4 1  2.518991399800e+00   2.698357563535e+02  -2.591680994044e+01 
5 1 -3.820716003274e+02   1.871266139421e+02   8.369195435000e+01 
6 1  5.598439970999e+02  -5.148434726671e+02  -2.249266289346e+02 
7 1 -3.458618588268e+02   1.915731929726e+02   1.744228417672e+02 
8 1  1.527763434801e+02  -4.761263576666e+02   1.423437181668e+02 
8
Step 1100
1 1  1.749530137384e+02  -4.984303303329e+02   1.613039964181e+02 
2 1  4.456133988958e+02  -5.458076516802e+02  -4.162615461035e+02 
3 1 -2.776348331857e+02  -2.555367804688e+02   8.156102461229e+01 
4 1  4.868669533252e+02   2.440961342560e+02  -6.513213663767e+00 
5 1  1.364013107021e+02   2.815623841910e+02  -2.157419899150e+02 
6 1  3.844256620033e+02  -6.066810613200e+01   2.192226863695e+02 
7 1 -3.231198356370e+02  -1.361121634386e+01  -1.334926639562e+02 
8 1  1.472379468257e+02  -5.451635486885e+02  -2.073838388043e+02 
8
Step 1200
1 1  1.218826649907e+02  -2.901432521632e+02   7.470704552162e+01 
2 1  2.553643902738e+02  -2.963086017806e+02  -4.485658907198e+02 
3 1 -2.970593402295e+02  -3.925526479987e+02  -3.244230313435e+02 
4 1  4.225505520323e+02   1.268484316898e+02   2.639596488917e+02 
5 1  4.191827220308e+02   7.040226180013e+01  -3.087985660262e+02 
6 1 -1.274788627327e+01   5.906759427331e+02   2.389578014052e+02 
7 1 -7.291636806878e+01  -1.574514137377e+02  -2.785426449073e+02 
8 1 -3.135327827929e+01  -7.075382568077e+01  -2.406759809189e+02 
8
Step 1300
1 1 -4.019026298376e+01   1.625915427115e+02   1.408198821265e+02 
2 1 -2.328145846655e+02   3.927069801083e+02  -1.337565498763e+02 
3 1 -9.409872641108e+01  -2.173294084938e+02  -4.136385231932e+02 
4 1 -5.607584977335e+01   8.178261632251e+01   4.293230012821e+02 
5 1  2.372951700268e+02  -2.445578906892e+02   4.426059928034e+00 
6 1 -2.950156288083e+02   7.931885142311e+02  -7.261643332104e+01 
7 1  8.902752162778e+01  -1.825385883446e+02   3.262276498499e+00 
8 1 -1.222614022215e+02   3.358077487986e+02   2.852081726747e+01 
8
Step 1400
1 1 -1.019694622709e+01   3.584712634019e+02   2.143700050046e+02 
2 1 -4.081541942490e+02   7.059795584952e+02   9.308425922337e+01 
3 1  1.030512771339e+02   1.128755124185e+02  -1.756306125681e+02 
4 1 -3.005209070966e+02   3.461109777713e+01   1.970451496015e+02 
5 1 -1.122063259218e+02  -3.308764772161e+02   3.925033850137e+02 
6 1 -2.813024593788e+02   3.752634745711e+02  -2.231551004684e+02 
7 1  2.454258469617e+01  -1.001887950343e+02   3.765390745303e+02 
8 1 -7.279851480252e+00   2.648204748556e+02   1.937691905614e+02 
8
Step 1500
1 1  2.443782859904e+02   1.261174732297e+02   9.206391702697e+01 
2 1 -7.232630867482e+01   2.623747784114e+02   1.423656291620e+01 
3 1  7.585734079196e+01   3.444255465949e+02   6.937492800362e+01 
4 1 -4.397820021795e+01  -1.501165049203e+02  -2.103033220549e+02 
5 1 -2.425858674713e+02  -7.679609463182e+01   3.880578060131e+02 
6 1 -8.102156856705e+01  -2.156234990877e+02  -3.657133942509e+01 
7 1 -1.026015950023e+02   5.146867595017e+01   3.569688460339e+02 
8 1  1.704514626294e+02  -7.459479316795e+01   1.107269335720e+01 
8
Step 1600
1 1  3.775438794032e+02  -2.302221803352e+02  -1.681155984835e+02 
2 1  3.167329040827e+02  -4.180533347552e+02  -1.233977442337e+02 
3 1 -1.028755737013e+02   3.298277010309e+02   6.394574445247e+01 
4 1  2.556762001890e+02  -3.773865668765e+02  -3.149551608151e+02 
5 1 -9.792515611254e+01   2.495522445787e+02  -3.229425667752e+01 
6 1  8.305817002919e+01  -4.380185771008e+02   1.806247352443e+02 
7 1 -6.254763380020e+01   1.760961073156e+02  -4.866602224433e+01 
8 1  2.060659030741e+02  -2.444125483146e+02  -2.776440946759e+02 
8
Step 1700
1 1  1.019171771507e+02  -3.068568585989e+02  -3.120476891777e+02 
2 1  2.638117671803e+02  -5.797234104953e+02   7.194508812534e-01 
3 1 -1.380914071809e+02   9.887481065928e+01  -1.174180399402e+02 
4 1  7.029857274580e+01  -3.394340294081e+02  -1.557824100980e+01 
5 1  6.835400002699e+01   2.734741757998e+02  -3.943695937886e+02 
6 1  1.030176890701e+02  -2.450903439139e+02   1.489244325441e+02 
7 1  1.529149813358e+02   1.424140758846e+02  -3.605637006891e+02 
8 1  6.926701223288e+01  -1.387626000413e+02  -2.618907617265e+02 
8
Step 1800
1 1 -3.910757659058e+02  -3.445180259883e+01  -2.052126431117e+02 
2 1 -1.275448871400e+02  -1.240991886769e+02   2.882387853346e+02 
3 1  8.183782470129e+01  -1.648083246944e+02  -1.884760109592e+02 
4 1 -4.312543599247e+02   6.383791954419e+01   2.402229755158e+02 
5 1  4.943412005440e+01  -4.660047184120e+01  -2.825084469337e+02 
6 1  3.050924789650e+01  -4.593486999607e+01   8.897660829386e+00 
7 1  3.035865215779e+02  -5.262389278505e+01  -2.305405566162e+02 
8 1 -8.422634093844e+01  -9.628879818367e+00   9.403207636351e+01 
8
Step 1900
1 1 -6.138733469490e+02   2.864403463794e+02   2.185288736783e+01 
2 1 -3.207594872745e+02   3.276071991812e+02   3.230530335442e+02 
3 1  3.083018730531e+02  -2.451025766546e+02   1.981359621536e+01 
4 1 -5.779521489893e+02   4.759085725104e+02   3.771167021631e+01 
5 1 -7.779795671811e+01  -3.457771521757e+02   1.182706011287e+02 
6 1 -4.456693230846e+01  -1.254752244310e+02   3.743133710816e+01 
7 1  1.754483990987e+02  -2.003413387923e+02   1.269762845782e+02 
8 1 -1.240398510439e+02  -2.521197454927e+01   3.864347880980e+02 
8
Step 2000
1 1 -3.342898706799e+02   3.230575105657e+02   1.330913482399e+02 
2 1 -7.242756344518e+01   2.411687517518e+02  -4.722779921244e+01 
3 1  2.384713322930e+02  -8.739205244556e+01   3.595885696614e+02 
4 1 -6.883713032054e+01   4.332024065792e+02  -4.043612868494e+02 
5 1 -1.069435617400e+02  -2.610988402921e+02   2.661947007651e+02 
6 1 -8.474835209627e+01  -2.837929991433e+02   1.687371011616e+02 
7 1 -1.587938274135e+02  -8.612039988304e+01   2.427807792337e+02 
8 1 -9.582903463559e+01  -3.130901768444e+01   2.679236526412e+02 
8
Step 2100
1 1  1.433530473995e+02   5.061048091441e+01   4.463644697530e+01 
2 1  2.474992066465e+02  -1.750084391382e+02  -4.102691332937e+02 
3 1 -7.181411787485e+01   9.959214466501e+01   5.064804699813e+02 
4 1  5.558892704607e+02  -5.132002243016e+01  -4.850804251805e+02 
5 1  3.586125482759e+01   1.216037810155e+02  -3.538509075688e+01 
6 1 -8.216077407841e+01  -1.732582121683e+02   1.015829933102e+02 
7 1 -3.683844191323e+02   2.005768266030e+02   1.286929063325e+01 
8 1 -1.171424847555e+02   1.626677149894e+02  -9.916528040585e+01 
8
Step 2200
1 1  3.705463795853e+02  -2.609527167780e+02  -8.628825888951e+01 
2 1  1.918150927344e+02  -3.221418738485e+02  -2.663549935289e+02 
3 1 -2.447251702506e+02   5.439917033434e+01   2.925541852484e+02 
4 1  5.564577232836e+02  -4.586953616623e+02  -3.311658581971e+01 
5 1  2.057836626288e+02   3.668273193960e+02  -3.683242206584e+02 
6 1 -1.696413097486e+01   1.995059566863e+02  -2.184490907389e+02 
7 1 -2.150870075091e+02   2.999681769840e+02  -1.921371711082e+02 
8 1 -1.771310498515e+02   4.295607265078e+02  -2.545598199439e+02 
8
Step 2300
1 1  2.659601916689e+02  -3.615941410853e+02  -6.147058487846e+01 
2 1 -1.521067135597e+02   1.042093234860e+01   2.925842032695e+02 
3 1 -6.675092390488e+01  -1.972532038488e+02  -1.349337325985e+02 
4 1 -6.352367500151e+01  -3.397573526302e+02   4.151057005111e+02 
5 1  2.128948047329e+02   2.110353831213e+02  -2.205095413696e+02 
6 1  8.080880703767e+01   4.613009358611e+02  -4.419225793116e+02 
7 1  1.655527637317e+02   6.205631666029e+00  -5.655329656262e+01 
8 1 -1.328001938333e+02   4.090828876381e+02  -2.448603967536e+01 
8
Step 2400
1 1  1.039208565447e+02  -2.241951475948e+02   1.135927659247e+02 
2 1 -2.827366611193e+02   4.042998813366e+02   5.851326811688e+02 
3 1  1.812823241146e+02  -3.034588156822e+02  -4.597689957316e+02 
4 1 -4.943387701730e+02   1.471244402653e+02   2.943189639715e+02 
5 1  2.761805117898e+01  -1.100070192078e+02   3.129438490061e+02 
6 1  1.276779979928e+02   3.358857779832e+02  -2.242942616019e+02 
7 1  3.704942715061e+02  -3.971545871396e+02   2.215417417242e+02 
8 1  8.150810340738e+01  -1.720453679108e+01   2.437172614672e+02 
8
Step 2500
1 1  7.701413518891e+01   3.902131484848e+01   2.231587267717e+02 
2 1  1.292728917415e+00   3.641095753502e+02   1.789386965734e+02 
3 1  9.894445159288e+01   7.562918037240e-01  -4.754191777911e+02 
4 1 -1.564947940875e+02   3.981863780569e+02  -1.691971089005e+02 
5 1 -2.230798872547e+02  -1.479300865720e+02   5.817477080342e+02 
6 1  9.328128896240e+01  -1.178534602778e+01   2.555453493586e+02 
7 1  1.715318996476e+02  -4.139935962278e+02   2.004696276687e+02 
8 1  3.121102610394e+02  -5.016858513396e+02   1.318229593442e+02 
8
Step 2600
1 1  8.183528638724e+01   2.862202116534e+02   1.206098013370e+02 
2 1  3.043772098968e+02  -3.292602117472e+01  -5.084485068552e+02 
3 1 -2.633486253512e+02   4.724471630489e+02  -2.218319260962e+02 
4 1  5.297534994726e+02   1.053759303393e+02  -2.112013253244e+02 
5 1 -3.508626359507e+02   1.235340399766e+02   2.167720338864e+02 
6 1  4.007055863184e+01  -1.908525147825e+02   4.269970890087e+02 
7 1 -2.075931776228e+02   4.407451794794e+01  -1.594499402997e+02 
8 1  3.270438489002e+02  -5.713378643520e+02  -2.735713132379e+02 
8
Step 2700
1 1 -3.606713284005e+01   4.036520753583e+02  -8.368195540676e+01 
2 1  1.937939581586e+02  -3.113400310637e+02  -6.509693064781e+02 
3 1 -4.048508466066e+02   5.385558250989e+02   7.989625493052e+01 
4 1  6.484265285798e+02  -3.150036709449e+02   3.385769559583e+02 
5 1 -2.332485012296e+02   2.366913524304e+02  -3.536277437491e+02 
6 1  4.442254115102e+01  -8.638451413280e+01   7.038429303549e+01 
7 1 -3.451985913670e+02   4.804838850412e+02  -3.930974908408e+02 
8 1  1.055429273465e+02  -1.608658558130e+02  -4.574902612698e+02 
8
Step 2800
1 1 -1.535769270684e+02   2.908013918462e+02  -1.509654256711e+02 
2 1 -2.008291353503e+02  -2.142683502891e+02  -5.977147361977e+01 
3 1 -5.484935839129e+01   2.241431160139e+01   2.133480147899e+02 
4 1 -3.986609441903e+01  -2.598574281907e+02   7.162541070438e+02 
5 1  8.052902908988e+01  -1.230002222384e+02  -4.428922382515e+02 
6 1  5.747679614525e+01   5.695479070396e+01  -3.538446145318e+02 
7 1 -1.117190072044e+02   3.811348978901e+02  -1.622562931864e+02 
8 1 -1.082913231206e+02   3.020547585968e+02  -1.400576494736e+02 
8
Step 2900
1 1 -7.638194927859e+01  -4.056212186764e+01  -1.853985293181e+01 
2 1 -3.463523300140e+02   1.849932611602e+01   5.202458296113e+02 
3 1  3.754686855939e+02  -5.231174602168e+02   1.594828047184e+02 
4 1 -7.622272985100e+02   2.227152184032e+02   2.864617742211e+02 
5 1  3.670713692068e+02  -5.775315075477e+02  -2.584264741845e+01 
6 1 -5.478567671277e+01   2.815625881178e+01  -3.032298887181e+02 
7 1  1.883819477653e+02  -1.241186091193e+02   2.442823660903e+02 
8 1 -1.069416791516e+02   3.720326217891e+02   3.304418393983e+02 
8
Step 3000
1 1  7.738762477916e+01  -3.732183373473e+02   1.142384144767e+02 
2 1 -4.838264555550e+01   3.595916919540e+01   3.967955416686e+02 
3 1  3.406750010003e+02  -4.548764186925e+02   8.449202121932e+01 
4 1 -7.068487251187e+02   5.085454193806e+02  -5.356208146333e+02 
5 1  3.989469034341e+02  -4.830990242514e+02   2.798029162165e+02 
6 1 -2.878777440394e+02  -7.857687929570e+01   1.292093112459e+02 
7 1  2.210896397625e+02  -4.344288288919e+02   3.062032043407e+02 
8 1  1.531128662404e+01   3.284917678110e+01   4.153861537532e+02 
8
Step 3100
1 1  1.480940046294e-02  -3.898325739429e+02   4.458381071959e+01 
2 1  2.856540856433e+02  -1.443025989403e+02  -2.240521387325e+02 
3 1 -9.514370921691e+01   1.471233056561e+02   1.432067337758e+02 
4 1  1.518693133108e+01   1.693951292896e+02  -7.630740935853e+02 
5 1  1.510626151444e+02   1.866074810198e+02   9.026274997811e+01 
6 1 -3.942433252511e+02  -7.026024809458e+01   3.621413239266e+02 
7 1  1.961263863303e+01  -2.004526824467e+02  -1.491331614160e+01 
8 1 -5.243690652995e+00  -3.279085278666e+02   4.358608801454e+01 
8
Step 3200
1 1 -2.929113647578e+02  -4.573867279994e+01  -1.428573860684e+02 
2 1  2.482407394845e+02  -2.103527022977e+02  -5.492621661023e+02 
3 1 -3.119341441825e+02   5.300778837176e+02   2.659086258093e+02 
4 1  5.290790228405e+02  -4.406771906840e+02  -2.086072993214e+02 
5 1 -1.537959093272e+02   7.082843973226e+02  -2.339500204987e+02 
6 1 -1.564445967909e+02   1.338738586440e+01   1.568624629907e+02 
7 1 -1.031183400966e+02   2.454338772680e+02  -2.156349893529e+02 
8 1 -2.232406806814e+02  -3.364313359850e+02  -3.009876702819e+02 
8
Step 3300
1 1 -3.751636671827e+02   3.102810476165e+02  -1.878011940738e+02 
2 1 -3.285433490675e+01   8.034560878893e+00  -2.164430342214e+02 
3 1  1.090145136354e+01   2.013203430947e+02   1.982462920465e+02 
4 1  3.353890967241e+02  -6.052985901413e+02   3.180964776505e+02 
5 1 -2.666941649354e+02   4.942340202395e+02  -1.809131085021e+02 
6 1  2.478210965869e+02  -7.399475540670e+00  -1.296932119772e+02 
7 1 -1.323700609769e+01   3.618753357780e+02  -7.208423195964e-01 
8 1 -3.728594660458e+02   2.618383569229e+01  -2.092360214762e+02 
8
Step 3400
1 1 -1.212467084937e+01   2.859166700402e+02  -4.646995337907e+01 
2 1 -1.477230271480e+02   3.064658133223e+02   3.436428118914e+02 
3 1  4.044557085492e+02  -4.151950001742e+02  -1.501424496963e+02 
4 1 -1.598322474709e+02  -1.457567568814e+02   1.800882707713e+02 
5 1 -1.870678608664e+02  -1.530926915125e+02   1.279952480511e+02 
6 1  4.184877974153e+02  -1.373446638837e+02  -1.062233590734e+02 
7 1  1.069482005178e+02   7.382797959642e+01   2.923188738805e+02 
8 1 -2.030451138396e+02   4.261144439816e+02   1.659477435117e+02 
8
Step 3500
1 1  4.473475454436e+02  -9.823391311524e+01   8.612889444287e+01 
2 1  7.221382845895e+00   3.730939669036e+02   5.093700697531e+02 
3 1  2.819148502286e+02  -5.423904366440e+02  -5.040286406498e+02 
4 1 -3.039166862734e+02   4.030608709058e+02  -2.587380768907e+02 
5 1 -8.859387984580e+01  -4.719625749795e+02   1.909432482448e+02 
6 1  1.994907026504e+02  -1.999097133495e+02   1.115278814662e+02 
7 1  4.891111084278e+01  -2.386542436727e+02   2.004754374465e+02 
8 1  1.990466604817e+02   5.064402602895e+02   3.719155117955e+02 
8
Step 3600
1 1  4.678976447379e+02  -4.418673799892e+02   5.287986077335e+01 
2 1  1.582374518806e+02   1.588905892384e+02   1.812693478876e+02 
3 1 -2.549403461205e+02  -4.498366869412e+01  -4.362621537472e+02 
4 1  5.866033902967e+00   4.656168081387e+02  -2.794682734272e+02 
5 1 -6.260990716485e+01  -2.018822635642e+02  -8.314087717633e+01 
6 1 -1.475253309162e+02  -6.961254781144e+01   1.035093183043e+02 
7 1 -1.224320847134e+02  -2.656132064400e+02  -2.043809101523e+02 
8 1  4.805455853101e+02   1.829652913653e+02   1.916102140705e+02 
8
Step 3700
1 1 -9.703234876309e-01  -3.510646232231e+02  -7.456628433947e+01 
2 1  5.548845911720e+01  -1.139575800123e+02  -1.941362602832e+02 
3 1 -5.388264162923e+02   4.327437304206e+02   6.879036938284e+01 
4 1  3.229673331369e+02   6.855327593629e+01   1.588109094226e+02 
5 1 -4.065328216145e+01   1.726674880276e+02  -2.390274946085e+02 
6 1 -2.025094050729e+02   1.349272999802e+02  -1.917920814180e+02 
7 1 -1.739225938990e+02  -8.054711077554e+01  -4.035495491565e+02 
8 1  3.882900899724e+02  -2.612636959821e+02  -1.705682408147e+02 
8
Step 3800
1 1 -4.511885082686e+02   1.475353869686e+02  -7.966031552653e+01 
2 1 -2.135300107628e+02  -2.262850553178e+02  -2.435823275229e+02 
3 1 -2.018961824735e+02   3.368269980454e+02   5.056782682246e+02 
4 1  2.787195983895e+02  -2.884850106517e+02   4.383718306983e+02 
5 1  7.942623516230e+01   1.362451952909e+02   4.703130760685e+01 
6 1  8.123289339379e+01   2.145329575498e+02  -3.705278710601e+02 
7 1 -3.444028475302e+01   6.348116344469e+01  -1.327446834374e+02 
8 1  1.881076553206e+00  -4.301412812057e+02  -3.720945559978e+02 
8
Step 3900
1 1 -3.910924104221e+02   5.875537387490e+02   1.082937315256e+02 
2 1 -3.404914913650e+02  -1.535782002319e+02  -1.358348481520e+01 
3 1  3.523328648779e+02  -1.195357312696e+02   3.669192663783e+02 
4 1 -2.682375738309e+01  -2.438161101784e+02   1.910345497659e+02 
5 1  2.383487436819e+02  -1.960986281021e+02   4.597197099555e+02 
6 1  3.012155637537e+02   1.449967457830e+02  -1.305193697775e+02 
7 1  1.123369178545e+02   6.722158420079e+01   2.658761903891e+02 
8 1 -3.446556133490e+02  -1.810591766189e+02  -2.708358542623e+02 
8
Step 4000
1 1  9.152898754272e+01   5.156313970476e+02   2.828772693694e+02 
2 1 -1.710938083828e+02  -4.914760286729e+01   1.866919983729e+02 
3 1  4.492510469120e+02  -2.773422137370e+02  -2.100134597346e+02 
4 1 -2.369510760748e+02   5.015689027831e+01  -1.769226454344e+02 
5 1  2.554140398107e+02  -2.645821331793e+02   4.087952547235e+02 
6 1  1.041265166857e+02   9.138253709132e+01   2.669523562211e+02 
7 1  8.193775373485e+01   3.971121913887e+01   2.758433818665e+02 
8 1 -3.574532010816e+02   1.838929290486e+02  -1.198353717743e+01 
8
Step 4100
1 1  4.566910034066e+02  -1.524793560373e+01   2.203285294281e+02 
2 1  1.203174628159e+02  -5.096506237693e+01   1.656781490653e+02 
3 1  3.768219711151e+00   5.448216753613e+01  -5.569294683030e+02 
4 1 -1.642273010577e+02   1.895366687238e+02  -9.930512215026e+01 
5 1  5.613433835152e+01   1.442578975176e+02  -1.591238861440e+02 
6 1 -3.251022379301e+02   1.420112944979e+02   3.269600017075e+02 
7 1 -5.012577391474e+01   8.328326185657e+01  -1.083332547615e+02 
8 1 -4.829275439392e+01   2.214728209866e+02   1.699392317847e+02 
8
Step 4200
1 1  3.616877290231e+02  -5.094414461842e+02  -3.184342473731e+01 
2 1  2.587187389026e+02  -1.075410062614e+02  -2.315314951210e+01 
3 1 -3.813981627308e+02   3.517603991807e+02  -2.658078619431e+02 
4 1  4.880393369738e+01   4.701160215795e+01   2.975193400847e+02 
5 1 -2.090593395174e+02   5.573526167164e+02  -6.278437674029e+02 
6 1 -4.515041612491e+02   1.460803646498e+02  -6.372200027130e-04 
7 1 -6.793756078447e+01   1.619406799494e+02  -3.626886077543e+02 
8 1  2.946364809342e+02  -1.341263480353e+02   1.768680382344e+02 
8
Step 4300
1 1 -1.492112758321e+00  -5.068516822709e+02  -2.158089557315e+02 
2 1  1.920658609556e+02  -5.970851715615e+01  -2.080509393409e+02 
3 1 -2.240603457428e+02   1.304873513518e+02   3.179085603941e+02 
4 1  1.196180564847e+02  -1.183334198236e+02   3.523541917431e+02 
5 1 -2.935812618238e+02   3.952293891827e+02  -4.512050635978e+02 
6 1 -5.581978270496e+01  -6.348734688638e+01  -2.371364692977e+02 
7 1  7.785018790789e+01   1.608247082412e+02  -1.150623267043e+02 
8 1  3.506189702112e+02  -4.495095248219e+02   8.481245996578e+01 
8
Step 4400
1 1 -2.167329364305e+02  -6.309067272861e+01  -1.653123591956e+02 
2 1  8.772751910744e+01   1.387193907876e+02  -2.741382730657e+02 
3 1  1.909477335548e+02  -3.336363386021e+02   5.014619490591e+02 
4 1 -4.193363709366e+01  -3.725307490151e+01  -1.558023362702e+02 
5 1 -1.081255082318e+02  -2.322265990543e+02   1.384694562551e+02 
6 1  4.284632615410e+02  -3.569326015507e+02  -3.888107942932e+01 
7 1  1.861214424463e+02   3.636178471756e+01   3.363769310188e+02 
8 1  5.435268979466e+01  -2.868805769862e+02   2.698049937135e+01 
8
Step 4500
1 1 -1.840468436659e+02   3.501456122883e+02   3.402592090412e+00 
2 1  4.637279516216e+01   3.478751817404e+02  -2.211805555677e+02 
3 1  2.687788432353e+02  -4.042539041240e+02   1.144720047580e+02 
4 1 -2.381256957006e+02   1.949690684674e+02  -6.280818172081e+02 
5 1  1.970705857182e+02  -6.396874365113e+02   4.560318550907e+02 
6 1  4.319735279039e+02  -4.009311651525e+02   3.080811315582e+02 
7 1  8.350789739656e+01  -1.543358145901e+02   4.191447003234e+02 
8 1 -3.433792048335e+02   2.424981049086e+02   3.207010119422e+01 
8
Step 4600
1 1 -1.114517367874e+02   3.369176672032e+02   5.176914146547e+01 
2 1  1.957191903582e+01   3.359100563872e+02  -8.319064827358e+01 
3 1 -6.729171573371e+01   3.777918958612e+01  -3.117739246276e+02 
4 1 -2.281175088275e+02   2.396329733395e+02  -4.449524885081e+02 
5 1  3.607896822865e+02  -4.019322935661e+02   2.206694313251e+02 
6 1 -5.170079286687e+01  -9.062615133798e+01   2.735324726026e+02 
7 1 -1.239576836235e+02  -2.921173506958e+02   3.309958763164e+01 
8 1 -4.735377349784e+02   5.748845120990e+02   1.430619660889e+01 
8
Step 4700
1 1 -1.382251027045e+02  -1.814735031854e+01  -6.374744201874e+01 
2 1 -4.218045271596e+01   5.269598726058e+01   7.582974583327e+01 
3 1 -2.981768428804e+02   4.025614773046e+02  -2.362073487695e+02 
4 1  2.103241462549e+00  -4.083022099845e+01   1.223099146946e+02 
5 1  2.304627590239e+02   1.256103493744e+02  -1.328174998124e+02 
6 1 -4.383108533999e+02   2.266268535465e+02  -1.482665063520e+02 
7 1 -1.769329364140e+02  -2.694033379924e+02  -3.178702388307e+02 
8 1 -1.919539440382e+02   3.762842326030e+02  -8.221515770667e+01 
8
Step 4800
1 1 -1.563397534367e+02  -3.063979554002e+02  -1.392804811410e+02 
2 1 -1.071786943840e+02  -2.825141375307e+02   2.001040699555e+02 
3 1 -8.268634366945e+01   2.069158009547e+02   1.821196190486e+02 
4 1  2.542252005925e+02  -3.817229256220e+02   3.039556187012e+02 
5 1 -1.209689936438e+02   3.494602594935e+02  -1.262958532070e+02 
6 1 -3.170395266164e+02   1.907159387672e+02  -4.247667652126e+02 
7 1 -2.740763190946e+01  -6.654527452584e+01  -2.276940465446e+02 
8 1  2.745637656220e+02  -6.744792702886e+01  -1.731424568886e+02 
8
Step 4900
1 1 -3.545978575013e+01  -2.408474928829e+02  -3.953967165806e+01 
2 1 -1.379767966762e+02  -3.952777166126e+02   2.799337848461e+02 
3 1  2.927983677561e+02  -2.735663603762e+02   3.470448384451e+02 
4 1  2.958406242572e+02  -4.064870608682e+02  -9.350896484784e+01 
5 1 -4.321114447664e+02   1.533627971603e+02   1.482174016458e+02 
6 1  9.570520827324e+01  -1.065086836279e+02  -2.044853421925e+02 
7 1  1.027058187471e+02   1.924792461916e+02   1.112558270492e+02 
8 1  5.160915428376e+02  -2.604204236438e+02  -1.141393246311e+02 
8
Step 5000
1 1  1.480281488963e+02   8.031454267734e+01   9.645884914077e+01 
2 1 -1.489810021731e+02  -2.137167877130e+02   3.262969606585e+02 
3 1  3.269604308450e+02  -3.737285393048e+02   1.770474299416e+01 
4 1  8.731720347608e+01  -7.989947220588e+01  -4.066070525436e+02 
5 1 -4.408527096883e+02  -6.946858763566e+01   2.315616240532e+02 
6 1  2.896743201431e+02  -2.322997049782e+02   2.150621803885e+02 
7 1  2.192008122679e+01   2.837351535319e+02   1.992915320406e+02 
8 1  3.229435749956e+02  -1.059238795998e+02   1.014173763298e+02 
8
Step 5100
1 1  2.177449738230e+02   3.110666705386e+02   6.502869079621e+01 
2 1 -1.412735135426e+02   6.064003782112e+01   2.965603851508e+02 
3 1 -1.346140457096e+01   4.543367529327e+01  -3.958268120750e+02 
4 1 -1.312791575165e+02   2.512242121518e+02  -2.027248432556e+01 
5 1 -1.332916544691e+02  -1.503586108306e+01  -6.409492618347e+01 
6 1  1.257551232358e+02   2.802789433529e+01   2.991563498305e+02 
7 1 -1.591507344750e+02   1.133984795220e+02  -8.321331495339e+01 
8 1 -1.129885635980e+02   6.077413688694e+01   2.654856368644e+02 
8
Step 5200
1 1  1.705066139131e+02   2.456337088463e+02  -8.958367099681e+01 
2 1 -5.696114430009e+01   1.745842952866e+02   1.056701268231e+02 
3 1 -2.648483347572e+02   4.051698529125e+02  -3.894147259904e+02 
4 1 -1.356349812511e+02   3.259325843234e+02   7.169543497513e+02 
5 1  2.453902026867e+02   1.380245413832e+02  -3.982550478886e+02 
6 1 -6.963835029003e+01   3.878207584829e+02  -1.367811744788e+01 
7 1 -1.725215499764e+02  -1.274766075726e+02  -3.346669143308e+02 
8 1 -4.073195789407e+02  -7.995126061207e+00   1.677540408968e+02 
8
Step 5300
1 1  1.271855389981e+02  -1.490914259951e+01  -1.176141949394e+02 
2 1  1.424139120338e+02   7.616228831813e+01  -2.363071089414e+02 
3 1 -1.238966324585e+02   2.062547750329e+02   3.445246849777e+01 
4 1  1.356299983922e+01   2.158878137548e+02   8.576973034867e+02 
5 1  3.974022997623e+02   7.225753055905e+01  -3.230913403256e+02 
6 1 -3.004180988439e+00   4.253914661290e+02  -2.932159157331e+02 
7 1  5.110385381797e+01  -1.431898461096e+02  -1.812275577197e+02 
8 1 -3.269518094548e+02  -1.722317365908e+02  -1.418124828491e+02 
8
Step 5400
1 1  1.175941994485e+02  -2.134313863303e+02   1.075509156504e+02 
2 1  3.389472361931e+02  -6.556277762883e+01  -5.292837083698e+02 
3 1  1.367591911903e+02  -2.621889784107e+02   3.829082707747e+02 
4 1  7.505327052235e+01   1.328024708577e+02   1.114910254172e+02 
5 1  2.462381572997e+02  -1.549230271865e+02   1.063458341979e+02 
6 1  1.767143015667e+02   9.287746673046e+01  -1.862787902295e+02 