8
Step 0
1 1  6.996693238828e+01   7.469439318030e+01   1.326126063853e+02 
2 1 -1.287408018267e+02  -5.142264762559e+01  -6.605502877963e+01 
3 1  2.212272819704e+02   5.224517838276e+02  -4.933316113084e+02 
4 1 -2.264853518711e+01   3.234507045652e+02  -3.003450626458e+00 
5 1 -3.551410567312e+02   1.756872163687e+02   1.943390465091e+02 
6 1 -1.790506797002e+02   4.296312042446e+02   9.244749381836e+01 
7 1  4.142520312552e+02   7.826418517363e+01   1.229819817333e+02 
8 1  4.523983844474e+02   3.572663025112e+02   1.679448558482e+02 
8
Step 1000
1 1 -4.397773462175e+02   5.501249557202e+02  -2.119919055121e+02 
2 1  2.378197149710e+02  -4.109879968434e+02  -4.895572602265e+02 
3 1 -3.373467208099e+02   1.001953494194e+03   3.045881252913e+02 
4 1  5.491428081231e+02  -2.805597041082e+02   8.147948860579e+02 
5 1 -6.177347498533e+02   8.244264476810e+02  -4.355403359032e+02 
6 1 -9.145550173956e+01   5.260732470984e+01  -5.996404481517e+02 
7 1 -4.954234510824e+02   4.086518840723e+02  -5.172184241516e+02 
8 1  1.021969036102e+02  -1.982648020429e+02  -3.938864682469e+02 
8
Step 2000
1 1 -4.211402827370e+02   5.512244454717e+02  -1.555402929905e+02 
2 1  3.335183686342e+02  -4.437814284867e+02  -4.772506704457e+02 
3 1 -3.575582111586e+02   3.584319041899e+02   6.268171175878e+02 
4 1  5.696904870094e+02  -5.978428492798e+02   7.616225415272e+02 
5 1 -2.592027218512e+02   3.811037067153e+02  -3.779103813533e+02 
6 1  1.548704919216e+02  -4.361099657648e+02  -4.566957060942e+02 
7 1 -6.076676572603e+02   1.106699113873e+02  -6.732308791866e+02 
8 1 -3.474624783249e+02  -3.616345440637e+02  -5.384746879370e+02 
8
Step 3000
1 1  2.260078440902e+01   7.779187411576e+01   1.070523592457e+02 
2 1  1.056680176496e+02  -1.395154632405e+02  -1.179489348628e+02 
3 1  2.588282745441e+01  -6.885062796118e+02   2.517510502742e+02 
4 1  8.726683320827e+00  -2.854224704279e+02  -8.638144514530e+01 
5 1  3.139849797174e+02  -5.056502376950e+02   5.084349749271e+01 
6 1  3.428488665266e+02  -5.230951787053e+02   2.167049380965e+02 
7 1  4.554267261678e+00  -2.471805279342e+02  -2.393608478517e+02 
8 1 -4.514972309453e+02  -3.586907929436e+01  -1.267724661700e+02 
8
Step 4000
1 1  3.005423088012e+02  -3.738628878590e+02   1.411670013463e+02 
2 1 -2.075614550462e+02   2.130983893788e+02   1.677348763236e+02 
3 1  1.682278319951e+02  -9.650598255098e+02  -2.249394750507e+02 
4 1 -5.398152415750e+02   2.531139942207e+02  -6.842306752387e+02 
5 1  5.588443323380e+02  -7.310332188761e+02   1.301436683564e+02 
6 1  2.458742110618e+02  -1.249019555640e+02   5.517324476406e+02 
7 1  4.808196419133e+02  -2.049903993651e+02   2.574293513367e+02 
8 1 -1.974757599549e+02   1.851772809893e+02   3.310199809983e+02 
8
Step 5000
1 1  1.339847086721e+02  -4.199817826354e+02  -1.428083613741e+02 
2 1 -3.124195567837e+02   3.004416340019e+02   1.543025136518e+02 
3 1 -1.402601787242e+02  -2.387364930680e+02  -2.506063966158e+02 
4 1 -5.432095240833e+02   4.722990641008e+02  -4.619257704760e+02 
5 1  3.344943803512e+02  -1.249047564711e+02  -1.880769553428e+02 
6 1 -6.234893373450e+01   3.277694798291e+02   2.416237760363e+02 
7 1  3.102552764732e+02   9.527765475047e+01   4.054411450151e+02 
8 1  1.049220122708e+02  -5.354090181165e+01   3.804294905263e+02 
8
Step 6000
1 1 -1.775117883988e+02  -1.180615328991e+02  -4.075149980463e+02 
2 1 -6.012271412348e+01   5.426894809327e+01  -3.510955448389e+01 
3 1 -4.531241635749e+02   5.448604765573e+02   1.639594704109e+02 
4 1 -5.015334722259e+01   1.776053813094e+02   6.171305806908e+01 
5 1 -6.221193982631e+01   4.483807098895e+02  -3.219777265058e+02 
6 1 -2.305436256054e+02   2.909076109193e+02  -2.331682676332e+02 
7 1 -2.393276959388e+02   2.421864497576e+02   2.440198896966e+02 
8 1  1.184521360447e+02  -4.057693549094e+02   5.138246543527e+01 
8
Step 7000
1 1 -2.187662309672e+02   1.481706716533e+02  -3.169887551826e+02 
2 1  3.085734548151e+02  -2.232399857138e+02  -8.671214062347e+01 
3 1 -2.606643417383e+02   4.943838294536e+02   4.521097032367e+02 
4 1  3.909747746714e+02  -3.024976066244e+02   1.281789616818e+02 
5 1 -2.809861026553e+02   3.173106146466e+02   4.780459727604e+01 
6 1 -1.036629272152e+02  -1.896278258106e+02  -3.176026418149e+02 
7 1 -5.520423482468e+02   1.397077717904e+02   9.578417377669e+01 
8 1 -1.306741830569e+02  -3.137967072554e+02  -2.301459512181e+02 
8
Step 8000
1 1  2.074624170179e+00   1.164669873680e+02   6.482741703410e+01 
2 1  3.713615083035e+02  -1.893279899128e+02   1.350508261039e+02 
3 1  2.965411751349e+02  -1.886423025032e+02   1.844430207872e+02 
4 1  3.411571582176e+02  -4.628508423563e+02  -2.139209053335e+02 
5 1 -2.179408646292e+02  -1.911112043272e+02   4.904677293777e+02 
6 1  8.290942236637e+01  -5.154726971589e+02  -3.359244708154e+01 
7 1 -3.541525816045e+02   4.204447237841e+01   9.733634380127e+01 
8 1 -2.791583368787e+02   2.249898316025e+02  -1.487883818491e+02 
8
Step 9000
1 1  1.397080763945e+02  -9.856700789009e+01   3.397175028115e+02 
2 1  4.816353211823e+01   1.263993025676e+02   4.179107660164e+02 
3 1  5.689872862602e+02  -5.476720168806e+02  -3.733467031883e+02 
4 1 -5.792010537616e+01  -1.386989716387e+02  -2.988626697743e+02 
5 1 -4.016588946845e+01  -3.007081425522e+02   4.012800924654e+02 
6 1  5.841596714699e+01  -2.658842253768e+02   1.708585665649e+02 
7 1  7.649397380262e+01   1.129415654506e+02   7.138081913615e+01 
8 1 -6.029130254030e+01   5.916086266395e+02   1.585843529350e+02 
8
Step 10000
1 1  2.027551444186e+01  -1.895983972501e+02   2.526788468310e+02 
2 1 -2.886801748493e+02   3.350894899893e+02   4.128944566453e+02 
3 1  2.432607460526e+02  -1.272176489715e+02  -5.820847860516e+02 
4 1 -2.938269934049e+02   3.478488708129e+02   1.119264497193e+02 
5 1  7.659167244813e+01   1.599095326793e+02  -1.427463068469e+02 
6 1 -8.570717575500e+01   2.684790798630e+02   6.446207598941e+01 
7 1  3.283172980189e+02   1.805170997974e+02  -1.466746655148e+02 
8 1  3.552182094643e+02   3.115874522835e+02   2.923966977379e+02 
8
Step 11000
1 1 -1.425690886944e+02  -1.585061601961e+01  -1.916862094054e+01 
2 1 -2.393021660458e+02   1.694734425802e+02   3.019076941479e+01 
3 1 -2.431797666575e+02   4.894785025069e+02  -2.117402151418e+02 
4 1 -1.095731579837e+02   5.266179143369e+02   4.657617241984e+02 
5 1  6.759315928985e+01   5.247837924325e+02  -4.663980500515e+02 
6 1 -4.333591308270e+01   4.464588214771e+02  -1.292458134894e+02 
7 1  2.908077713271e+02   3.214670494251e+01  -3.924866698611e+02 
8 1  5.352944896144e+02  -2.740712635798e+02   7.553011687468e+01 
8
Step 12000
1 1 -8.355463718006e+01   2.525221106097e+02  -1.129098164156e+02 
2 1  9.235409896754e+01  -1.571983562266e+02  -4.240613281092e+02 
3 1 -2.862421884875e+02   4.970280281785e+02   2.971825581526e+02 
4 1  2.083823312355e+02   2.434574092348e+02   2.459869057711e+02 
5 1 -1.903856667576e+01   1.995392676858e+02  -1.757941990753e+02 
6 1  2.085913834710e+02   9.835328144790e+01  -1.278369089591e+02 
7 1  1.392468161921e+02  -2.274816537926e+02  -3.414892258974e+02 
8 1  2.920056427241e+02  -4.090550545127e+02  -2.608392514478e+02 
8
Step 13000
1 1  1.188133880783e+02   3.516878598297e+02   2.672175165260e+01 
2 1  2.101341920668e+02  -2.566444553376e+02  -5.162161230126e+02 
3 1  1.018405528240e+02  -8.283751671337e+01   4.089468226203e+02 
4 1  2.351327966780e+02  -2.090623712241e+02  -2.320913892519e+02 
5 1 -3.852923477747e+01  -4.493664538824e+02   3.061182006871e+02 
6 1  3.042663373357e+02  -2.616160356309e+02   1.265074494013e+01 
7 1  3.238253918414e+01  -3.158613896559e+02   2.246576642186e+01 
8 1 -1.419961399715e+02   4.901986203201e+01  -3.425453478674e+02 
8
Step 14000
1 1  1.793708899507e+02   2.028511300905e+02   1.233686823356e+02 
2 1 -8.706529269606e+01  -7.716578089498e+01  -1.516132812432e+02 
3 1  3.569745535551e+02  -5.053952833326e+02   1.286442576561e+02 
4 1 -4.134454555239e+01  -4.319601370923e+02  -2.662555658339e+02 
5 1  9.532863574556e+01  -6.031084238307e+02   3.233413743289e+02 
6 1 -1.874234991808e+01  -1.283193854580e+02   4.568357961918e+01 
7 1 -4.342741940996e+01  -1.794430774628e+02   3.186736705314e+02 
8 1 -4.114812465689e+02   4.493722854470e+02  -8.589718392050e+01 
8
Step 15000
1 1  4.455313385438e+01  -5.803604084817e+01  -3.110049157391e+01 
2 1 -3.962528343375e+02   6.316374925401e+01   2.861463052740e+02 
3 1  1.119104411705e+02  -2.692177252816e+02  -1.021871689890e+02 
4 1 -2.387091091145e+02  -2.937891392123e+02   2.202284053769e+02 
5 1  2.645377486853e+02  -8.434183701849e+01  -1.402466602171e+02 
6 1 -4.837115994794e+02   3.319272284558e+02  -6.407376323516e+01 
7 1 -1.305482073815e+02  -4.937875713368e+01   2.083072710571e+02 
8 1 -3.709279925321e+02   2.083981762718e+02   2.189848216587e+02 
8
Step 16000
1 1 -5.072596110231e+01  -2.296631987307e+02  -2.784574676462e+02 
2 1 -2.283393068221e+02  -5.619981247219e+01   3.236813045381e+02 
3 1 -3.445648656301e+02   2.854377555520e+02  -1.622456857766e+01 
4 1 -9.946566823810e+01  -3.332916700306e+00   5.413245159658e+02 
5 1  2.076082795402e+02   4.393686855093e+02  -4.416744984335e+02 
6 1 -5.295062367743e+02   4.855291742148e+02  -9.450244394240e+01 
7 1 -1.649678012979e+02  -7.245679742850e+01  -1.488097973136e+02 
8 1 -1.405551975834e+02  -4.204406897158e+02   2.314441625889e+02 
8
Step 17000
1 1  3.535055505289e+01  -2.251653525030e+02  -2.513865417219e+02 
2 1  3.076690872787e+02  -2.245889118953e+02  -7.236427919162e+01 
3 1 -4.703972163036e+02   4.683994623984e+02   1.594166420059e+02 
4 1  1.820979313784e+02   1.661492263859e+02   1.730493817264e+02 
5 1 -1.639649709024e+02   3.772095265611e+02  -1.708403992913e+02 
6 1 -4.492017621410e+00   4.564190080179e+01   8.204081280524e+01 
7 1 -7.215996830546e+01  -7.737857239358e+01  -2.519398139786e+02 
8 1  7.359761597062e+01  -6.680039285177e+02  -2.459133186143e+01 
8
Step 18000
1 1  1.224364505709e+02  -1.214122251049e+02   1.189381079525e+02 
2 1  5.867976525336e+02  -9.482944208220e+01  -4.240830151137e+02 
3 1 -1.643546836221e+02   1.065513910704e+02   7.511916480411e+01 
4 1  2.226011811816e+02   1.394651947775e+02  -4.793058372038e+02 
5 1 -5.472640074791e+02  -3.994460452695e+01   2.920665157441e+02 
6 1  5.626159648146e+02  -5.284082996941e+02   2.814574565591e+02 
7 1  7.145518415969e+01   1.374021015779e+02   9.983364005275e+01 
8 1  1.573175263410e+02  -2.223334229099e+02  -1.916241980260e+02 
8
Step 19000
1 1 -1.847919105983e+01  -3.845648098755e+01   4.313614459357e+02 
2 1  2.580638006547e+02   2.827770992601e+02  -2.995698708218e+02 
3 1  1.736661728082e+02  -3.274635877077e+02  -2.358527384442e+02 
4 1 -4.402760877981e+01   5.208325158176e+01  -5.905629313576e+02 
5 1 -4.965089949803e+02  -1.966026404668e+02   3.317517686330e+02 
6 1  5.573758495395e+02  -5.859282253435e+02   2.453194914529e+02 
7 1  9.879876744146e+01   4.206759062191e+02   4.911599311690e+02 
8 1  1.363709212819e+02   4.111627277164e+02  -3.648240029811e+01 
8
Step 20000
1 1 -2.781023820330e+02  -9.031403543179e+00   2.807929361365e+02 
2 1 -2.737040517165e+02   4.565698808152e+02   1.686222564713e+02 
3 1  1.999216561118e+02  -3.776436292617e+02  -3.797297277880e+02 
4 1 -2.730935563276e+02   4.206240344737e+01  -5.454959388435e+01 
5 1  4.178369695944e+01   2.010080302126e+01  -4.502928378866e+01 
6 1  2.025873040830e+01  -8.661531827185e+01  -7.567241407509e+00 
7 1 -2.997559990422e+01   4.006914045252e+02   3.687450874781e+02 
8 1  8.616651909290e+01   5.427757177450e+02   2.238849771171e+02 
8
Step 21000
1 1 -3.109718039039e+02   5.206808091008e-02  -1.729915975945e+02 
2 1 -3.877202314455e+02   1.890753507110e+02   4.557472744782e+02 
3 1  4.462546377343e+01  -1.315706454778e+02  -1.481435852814e+02 
4 1 -1.876410177771e+02   8.318540672869e+01   3.564319871965e+02 
5 1  5.774899997852e+02   1.545499503015e+02  -2.647355717303e+02 
6 1 -4.120192417411e+02   3.597190487135e+02  -2.111629057196e+02 
7 1 -1.520634746532e+02   2.884946524860e+01  -2.118439324623e+02 
8 1  4.367839543976e+01   1.480130142935e+02   1.992682206208e+02 
8
Step 22000
1 1 -1.523168794804e+01   2.123710274740e+01  -4.140221431789e+02 
2 1 -5.879867840179e+01  -2.159018248777e+02   3.008334734966e+02 
3 1  2.712213231102e+01   8.036913782554e+01   2.162722867883e+02 
4 1  6.942095119917e+01   5.313172662747e+01   9.362230692116e+01 
5 1  5.936148276661e+02  -8.714175834655e+01  -2.809846811065e+01 
6 1 -3.160228501370e+02   2.837309147790e+02  -2.105624728753e+02 
7 1 -1.035562066889e+02  -3.082684999894e+02  -6.220403139923e+02 
8 1  7.146329564801e+00  -2.125893492421e+02  -1.308105105742e+02 
8
Step 23000
1 1  2.757211061028e+02   6.722292582633e+01  -1.979761824093e+02 
2 1  1.881293628755e+02  -3.055085292852e+02  -2.466667420771e+01 
3 1  1.809740817017e+02   1.532902901745e+02   3.245476602388e+02 
4 1  1.594780818542e+02  -7.896347345991e+01  -4.308237543164e+02 
5 1  9.590257693361e+01  -4.082461842672e+02   3.120077025756e+02 
6 1  7.829244381293e+01  -1.341893011796e+02  -1.013975345561e+02 
7 1  8.413229260155e+01  -2.504789599694e+02  -3.910419444578e+02 
8 1 -4.470375376203e+00  -1.456654221033e+02  -3.753618527593e+02 
8
Step 24000
1 1  2.196981647877e+02   1.065223866052e+02   1.595410711707e+02 
2 1  1.603609172526e+01  -4.837700541399e+01  -1.092979258743e+02 
3 1  2.613361715729e+02   1.805594299547e+02   1.181937094875e+02 
4 1 -1.044712913744e+01  -1.667978823329e+02  -4.159065948122e+02 
5 1 -3.879041464701e+02  -3.123497215056e+02   2.487398267543e+02 
6 1  2.574442495411e+02  -3.407181583952e+02  -3.378009813879e+01 
7 1  2.268643395084e+02   7.014537135585e+01   2.217448628089e+02 
8 1  8.149914714976e+00   1.152092241392e+02  -2.081067909984e+02 
8
Step 25000
1 1 -6.934569276258e+01   1.233039696181e+02   1.968758018444e+02 
2 1 -2.841248924799e+02   1.343786528996e+02   7.358495232509e+01 
3 1  1.080816395022e+02   1.723846929589e+02  -1.100876694366e+02 
4 1 -1.517900852582e+02  -1.113006777413e+02   2.393515983989e+02 
5 1 -4.090261344718e+02   1.906276921791e+02  -1.845996996336e+02 
6 1  5.544850791680e+01  -7.417818886640e+01   4.509122595331e-03 
7 1  1.924590857166e+02   1.958234431578e+02   5.197759427074e+02 
8 1 -1.909038843585e+01   1.472632239266e+02   2.063953846221e+02 
8
Step 26000
1 1 -1.709467166593e+02   1.172218251103e+02  -9.189184093330e+01 
2 1 -2.226107846841e+02  -6.025388852713e+01   1.749988134974e+02 
3 1 -1.381924414214e+02   2.917582763594e+01  -1.521804150890e+02 
4 1 -1.164457875797e+01   2.721524933370e+01   7.966433282681e+02 
5 1 -6.106651679787e+01   5.413829915139e+02  -4.658869203905e+02 
6 1 -2.281375376346e+02   3.727161670123e+02   7.752567869836e+01 
7 1  1.553638791677e+01  -6.260271714989e+01   1.785499200665e+02 
8 1 -1.160195372158e+02  -8.464738761544e+01   4.146632563466e+02 
8
Step 27000
1 1  9.124808327304e+01   6.401074810759e+01  -2.408096170740e+02 
2 1  1.807338807801e+02  -3.531236881890e+02  -7.061649565706e+01 
3 1 -2.137972160263e+02  -2.589994491669e+02  -3.483608232530e+01 
4 1  2.494965177210e+02   1.256703652419e+02   5.973121001757e+02 
5 1  1.784810536453e+02   3.278876116961e+02  -2.609875641681e+02 
6 1 -2.460002482711e+02   5.057430405627e+02   1.474860265880e+02 
7 1 -1.635407129762e+02  -3.691928943497e+02  -3.641979652312e+02 
8 1 -1.985037146113e+02  -2.150273285502e+02   1.979494186550e+02 
8
Step 28000
1 1  3.779890052787e+02  -5.917406146642e+01   7.467624840017e+01 
2 1  3.972793464680e+02  -2.480217384208e+02  -4.517827200632e+02 
3 1 -1.156125974238e+02  -4.080151350460e+02   1.063226184192e+02 
4 1  2.737540206787e+02   1.426195000384e+02  -8.273556399719e+01 
5 1  5.294868934820e+01  -1.598592426656e+02   1.467811663057e+02 
6 1 -1.421300186220e+00   1.878481299679e+02   7.418846888917e+01 
7 1 -2.233168882939e+02  -3.042760771158e+02  -4.229062777514e+02 
8 1 -1.266492229337e+02  -4.711703908212e+01  -1.708691070264e+02 
8
Step 29000
1 1  2.646657683595e+02  -2.144304538080e+02   5.607232529203e+02 
2 1  1.366548853728e+02   2.587090320147e+02  -5.377050390085e+02 
3 1 -9.394130782872e+01  -1.171328773082e+02   1.650915553528e+02 
4 1  2.481466151599e+01   1.178054349055e+02  -4.279299793896e+02 
5 1 -1.498177788287e+02  -3.256693973213e+02   2.805555885991e+02 
6 1  2.421719555940e+02  -2.290831652302e+02  -1.110873427214e+02 
7 1 -1.293189563407e+02   6.452207749126e+01   7.056021009852e+01 
8 1  1.014452027280e+02   1.558946980476e+02  -2.819052007447e+02 
8
Step 30000
1 1 -1.774846988593e+02  -2.725925060693e+02   6.006993594563e+02 
2 1 -2.368305478539e+02   6.028148127785e+02  -2.324740412069e+02 
3 1 -2.200375539719e+02   4.243084543251e+02   8.390670285477e+01 
4 1 -1.864473058223e+02   8.258725916187e+01  -1.770271105595e+02 
5 1 -2.766716644600e+01  -4.286826291129e+01   1.197939242764e+02 
6 1  3.020322997336e+02  -3.302385094916e+02  -1.741495156934e+02 
7 1  6.980151757374e+01   2.928170167190e+02   4.929454761882e+02 
8 1  2.763653241500e+02   8.931291851899e+01  -9.701847679542e+01 
8
Step 31000
1 1 -4.439672363997e+02  -1.264921937010e+02   9.050298240279e+00 
2 1 -1.961286753012e+02   3.595469858771e+02   1.460342949411e+02 
3 1 -2.488397290472e+02   6.319040366753e+02  -1.108068337607e+02 
4 1 -1.458873042266e+02  -1.192497632526e+01   9.060693692557e+01 
5 1  3.334336668051e+02   2.121520577311e+02   1.283972501820e+01 
6 1  1.879151603100e+02  -8.603981800723e+01   9.666385161321e+00 
7 1  2.445224446705e+02   1.611909708451e+02   3.164678361036e+02 
8 1  1.879453366866e+02  -1.336650719111e+02   5.735357618937e+01 
8
Step 32000
1 1 -2.740838771697e+02   1.557444026271e+02  -6.801805340050e+02 
2 1  1.897050344167e+02  -2.039152490041e+02   2.824651525807e+02 
3 1  1.897661143615e+01   2.337024274188e+02  -2.738377658987e+02 
4 1 -1.723348554176e+01  -2.139501552982e+02  -1.334582026674e+02 
5 1  4.178784162037e+02   4.070666500673e+01   1.106881237588e+02 
6 1 -2.988257551439e+01   1.455438875983e+02   2.399998104028e+02 
7 1  2.358233624544e+02  -4.567589536835e+01  -2.128308253063e+02 
8 1 -6.002015576417e+01  -1.625072257679e+02  -2.949182621091e+01 
8
Step 33000
1 1  4.019079656569e+01   3.486160445866e+02  -8.245972601933e+02 
2 1  3.237475978179e+02  -4.845291550472e+02   2.638835962147e+02 
3 1  4.018387508575e+02  -3.920901879063e+02  -2.359547979244e+02 
4 1 -2.382775435511e+01  -4.183708461894e+02  -5.598196852489e+02 
5 1 -3.201357254317e+01  -3.419890304298e+02   1.889644851242e+02 
6 1 -2.897097490171e+02   4.555528668125e+01   2.261360554023e+02 
7 1 -9.558576203809e+00   2.441176273827e+01  -4.253492493670e+02 
8 1 -1.559906748970e+02   5.078637619840e+01  -1.656736473395e+02 
8
Step 34000
1 1  9.471333471254e+01   2.330345398344e+02  -3.320681104149e+02 
2 1 -6.970158879416e+01  -2.458973429864e+02   3.478089926925e+02 
3 1  4.752350481696e+02  -6.101527380946e+02   2.176360452372e+01 
4 1 -8.813584859274e+01  -3.900324802216e+02  -4.949579514375e+02 
5 1 -6.093391011423e+02  -3.919918767034e+02   8.512450628189e-01 
6 1 -4.436230753582e+02  -3.095977234524e+02  -3.568506236705e+01 
7 1 -3.169573628325e+02   2.835887734611e+02  -7.991921047355e+01 
8 1  1.542602861013e+01   1.669134622530e+02  -4.557340315310e+01 
8
Step 35000
1 1 -8.878427857755e+01  -1.101704394003e+02   2.560223368116e+02 
2 1 -4.793850700613e+02   1.000340920987e+02   4.665979755758e+02 
3 1  1.154683522386e+02  -2.413887026968e+02   2.727115988420e+02 
4 1 -1.246711439879e+01  -3.044538964607e+01   1.620210820567e+02 
5 1 -6.595636176060e+02   4.151844955851e+01  -3.196321686786e+02 
6 1 -2.925033053262e+02  -5.138043560098e+02  -2.270496421552e+02 
7 1 -3.759565860431e+02   3.079173964242e+02   3.181870906216e+02 
8 1  1.990328963715e+02  -2.572109243693e+01   2.782590050931e+02 
8
Step 36000
1 1 -1.331028724704e+02  -3.355781469158e+02   4.067607218983e+02 
2 1 -3.073193378269e+02   9.931558740541e+01   2.745794483009e+02 
3 1 -2.675648401769e+02   2.295644370048e+02   2.594529390617e+02 
4 1  1.340654424443e+02   4.501680493302e+02   7.022108431330e+02 
5 1 -8.121275204703e+01   4.524341501246e+02  -3.678488753080e+02 
6 1  1.415536427510e+02  -2.683922254345e+02  -1.382161793098e+02 
7 1 -7.895595490388e+01  -5.901837521160e+01   2.116642946334e+02 
8 1  7.613122022293e+01  -2.230517307767e+02   4.085751278417e+02 
8
Step 37000
1 1  1.177018104520e+02  -2.276196328589e+02   1.830571428789e+02 
2 1  2.724171095625e+02  -1.100873340822e+02  -2.763374987281e+02 
3 1 -2.188039956398e+02   2.628465426743e+02   5.480158812495e-01 
4 1  6.882853217349e+01   6.790559760454e+02   5.218115426296e+02 
5 1  5.372022461025e+02   3.380274912044e+02  -3.860019878443e+01 
6 1  5.081884446918e+02   2.841779803808e+02   5.870759719814e+01 
7 1  3.103359692067e+02  -4.545578786042e+02  -2.414080106978e+02 
8 1 -2.924847197196e+02  -3.755827232954e+01   1.412040249698e+02 
8
Step 38000
1 1  3.558483252638e+02   6.714641413578e+01   5.456185471955e+01 
2 1  5.146526988179e+02  -7.793935074041e+01  -6.933665080088e+02 
3 1  1.560664689633e+02  -8.316226153854e+01  -2.039567100187e+02 
4 1 -2.392017043628e+02   4.426655308205e+02  -9.563921137996e+01 
5 1  6.067847327180e+02  -1.401160713574e+02   2.933475613628e+02 
6 1  4.434466247872e+02   6.726087447774e+02   7.178449942165e+01 
7 1  4.011242973177e+02  -4.340241269665e+02  -3.765377977658e+02 
8 1 -4.734545640548e+02   3.803628883910e+02  -2.306361789329e+02 
8
Step 39000
1 1  2.439629533402e+02   2.129921382420e+02   2.296890094959e+02 
2 1  1.076716004045e+02   2.309892934939e+02  -5.187007537757e+02 
3 1  2.872089258096e+02  -2.605480923586e+02  -1.176391467641e+02 
4 1 -3.570998720214e+02  -9.556555697613e+01  -3.590947449525e+02 
5 1  1.981214730697e+02  -3.468662465608e+02   2.423292822701e+02 
6 1  5.667383128639e+00   5.638838586799e+02  -9.251784920821e+01 
7 1  1.137042272802e+02  -3.024831007308e+01   5.561172313445e+01 
8 1 -1.810094552342e+02   4.576248272842e+02  -2.835556783905e+02 
8
Step 40000
1 1 -7.739499073173e+01   9.699036794850e+01   3.952217942481e+02 
2 1 -3.913169253420e+02   3.696019315705e+02   7.661657069743e+00 
3 1 -8.312692788642e+01   1.568238156371e+01   1.163556336580e+02 
4 1  4.566193509837e+01  -5.160716130595e+02  -3.477637276405e+01 
5 1 -1.374081759083e+02  -2.566246589316e+01  -7.854865758841e+01 
6 1 -3.387152559155e+02   1.344712134244e+02  -1.568150393350e+02 
7 1 -2.051382958215e+02   2.829650484394e+02   4.916080287116e+02 
8 1  3.161329976748e+02   2.144600349086e+00  -5.066889409221e+01 
8
Step 41000
1 1 -1.956757496662e+02  -7.145131510411e+01   1.796385152285e+02 
2 1 -3.603860588012e+02   8.209171592367e+01   2.902481679690e+02 
3 1 -5.480314873403e+02   4.167440568440e+02   1.723593848882e+02 
4 1  6.373197607953e+02  -5.314974528273e+02   3.354503249695e+02 
5 1 -1.408294724930e+02   3.849079887436e+02  -2.593522018248e+02 
6 1 -2.817906991742e+02  -2.024167089613e+02  -7.119450799313e+00 
7 1 -2.209710440369e+02   2.027504499660e+02   3.217878518512e+02 
8 1  5.264409195300e+02  -4.872144056109e+02   7.240071617681e+01 
8
Step 42000
1 1  3.661571824643e+00  -6.454759897542e+01  -3.049845651303e+02 
2 1  8.446877885330e+01  -2.626389781763e+02   1.335653307013e+02 
3 1 -5.173923766578e+02   4.244450422868e+02  -4.921113814745e+01 
4 1  7.012691124004e+02  -1.819473328996e+02   2.421131706137e+02 
5 1 -4.445179519845e+01   3.369358616640e+02  -1.217256802636e+02 
6 1  2.611735114989e+01  -2.518151644581e+02   1.479279275970e+02 
7 1  1.820898062006e+01  -1.008701567292e+02  -2.937492119169e+02 
8 1  2.809097426970e+02  -4.372797995162e+02  -8.766629614763e+01 
8
Step 43000
1 1  1.697423849982e+02   8.424727477193e+01  -5.706509012094e+02 
2 1  3.180450664959e+02  -1.845825822520e+02  -6.323737426340e+01 
3 1  3.438293547763e+01   1.552094883641e+01  -2.779458409886e+02 
4 1  5.936990787286e+01   1.898031538615e+02  -1.377618248611e+02 
5 1 -1.182747404234e+02  -1.219915586791e+02   1.160632052489e+02 
6 1  1.901761926004e+02  -1.739300224862e+02   1.049704216416e+02 
7 1  1.670212718604e+02  -2.382114438112e+02  -5.915676207846e+02 
8 1 -8.200495458121e+01   2.048977134414e+01  -2.378142750411e+02 
8
Step 44000
1 1  1.031152245241e+01   1.572342133515e+02  -3.836336597740e+02 
2 1  1.093601734252e+02   1.742311173866e+02   4.683579630997e+01 
3 1  5.372001007831e+02  -3.582187218995e+02  -2.089845348883e+02 
4 1 -6.422434945539e+02   2.852284694436e+02  -3.137837801502e+02 
5 1 -2.628922876840e+02  -4.512223228076e+02   2.036999351026e+02 
6 1  6.997232776981e+01  -1.772757053625e+02  -1.743778038028e+01 
7 1  3.998775705653e+01  -7.183494767837e+01  -2.105958681970e+02 
8 1 -1.896776925471e+02   2.634148145073e+02  -6.764720585097e+01 
8
Step 45000
1 1 -2.912820757278e+02   5.367739541378e+01   1.478706419433e-01 
2 1 -1.571433819777e+02   2.331308780546e+02   2.621695304837e+02 
3 1  4.927733947260e+02  -3.582144146798e+02   1.230409964577e+02 
4 1 -6.829880184061e+02   9.825676363934e+01  -1.898863720298e+02 
5 1 -2.060794091208e+02  -3.011077737485e+02   1.485280590905e+02 
6 1 -1.230900157810e+02  -2.080651898729e+02   2.267728160916e+01 
7 1 -1.848649377362e+02   2.023558478813e+02   3.805693828318e+02 
8 1 -6.423716365236e+01   1.776986066075e+01   2.652755103103e+02 
8
Step 46000
1 1 -3.272703588148e+02  -9.236145621065e+01   1.830725012677e+02 
2 1 -9.021539889559e+01  -1.942346207547e+02   1.822411691182e+02 
3 1  2.641971904430e+01  -1.072532563548e+02   3.779470339200e+02 
4 1 -1.305491591254e+02  -1.164859453832e+02  -8.819752417238e+01 
5 1  4.853629104858e+01   9.362030281669e+01   8.753035512411e+01 
6 1 -1.530889223200e+02  -9.664459853156e+01   1.816465932124e+02 
7 1 -2.137483627749e+02   3.226302944817e+02   4.983129853294e+02 
8 1 -1.710329682142e+01  -2.959553077090e+02   3.241456423182e+02 
8
Step 47000
1 1 -3.151805324702e+01  -1.265951743404e+02   1.180962880347e+02 
2 1  1.553086275740e+02  -5.955164375312e+02  -1.569801456421e+02 
3 1 -2.977000809322e+02   7.684182632979e+01   2.979201646577e+02 
4 1  2.900720108928e+02  -1.150800281200e+02  -1.725480801821e+02 
5 1  2.267318881028e+02   2.646567142131e+02   2.718182965238e+01 
6 1 -3.660097352262e+01   1.273957067808e+02   1.607740957967e+02 
7 1 -1.673234725281e+00   2.071925801361e+02   9.158070431752e+01 
8 1 -1.908943726722e+02  -1.622772747551e+02   2.264626910673e+01 
8
Step 48000
1 1  2.599844823649e+02  -5.895910034181e+01   5.893579994679e+01 
2 1  1.610558747751e+02  -3.878705335372e+02  -3.003647921302e+02 
3 1 -1.669085123220e+02   8.151859447888e+01  -4.161955308981e+01 
4 1  1.450675006901e+02   8.802757902300e+01  -2.020324067250e+02 
5 1  1.824358242297e+02   7.999292793873e+01  -1.053139877858e+02 
6 1  6.188733467515e+01   2.240595482036e+02  -1.368287552757e+02 
7 1  2.192162491325e+02  -4.555629365403e+01  -2.906876173597e+02 
8 1 -3.450145711420e+02   3.160784905313e+02  -2.292323235896e+02 
8
Step 49000
1 1  2.558804898009e+02  -2.767570562359e+01   1.421137767224e+02 
2 1 -1.273403161339e+02   3.174778775764e+02  -6.198659270417e+00 
3 1  1.600647507560e+02   4.775351899068e+01  -3.281092199610e+02 
4 1 -2.094272937516e+02   2.672250991830e+02   3.870339605993e+01 
5 1  7.120654151820e+01  -1.637796048851e+02  -2.442654490291e+02 
6 1  7.984770324776e+01   5.393624669292e+01  -3.903031346557e+02 
7 1  2.265570426429e+02  -2.615155816889e+02  -2.265121620644e+02 
8 1 -1.679217158113e+02   5.544610079221e+02  -7.658927812222e+01 
8
Step 50000
1 1  3.153271346385e+01  -8.786492438891e+01   2.184384042012e+02 
2 1 -2.939942479116e+02   7.779307928727e+02   3.475318023134e+02 
3 1  2.272544553802e+02   1.202859323560e+02  -3.325562618898e+02 
4 1 -1.668533216033e+02   1.881931860932e+02   3.180713952024e+02 
5 1  8.611333870705e+01  -1.432376631355e+02  -2.145752803602e+02 
6 1  9.348365059865e+01  -1.798045337430e+02  -2.375938343285e+02 
7 1  3.200508330062e+01  -2.686076470023e+02   9.714972134306e+01 
8 1  2.816950342580e+02   2.377897894711e+02   2.974966009389e+02 
8
Step 51000
1 1 -1.087459667687e+02  -9.880810895272e+01   7.462934254109e+01 
2 1 -4.636486256484e+01   4.810280415406e+02   2.269953210116e+02 
3 1 -6.692419794489e+01   2.100808304252e+02  -1.147924281399e+02 
4 1  3.089874702155e+02  -1.542731064079e+02   2.885847212852e+02 
5 1  1.346711749264e+02   1.077444240115e+02   3.063813462070e+00 
6 1  1.312090399771e+02  -1.428219756018e+02   1.943629308122e+02 
7 1 -1.567342901443e+02  -3.176901862700e+01   1.855241716188e+02 
8 1  5.540874574954e+02  -2.671984254118e+02   3.481297302623e+02 
8
Step 52000
1 1 -3.836771550268e+01   6.144728660524e+01  -2.114801104513e+02 
2 1  3.132082417724e+02  -2.096461516917e+02  -2.933570621001e+02 
3 1 -3.651981952402e+02   8.355863710120e+01   8.569148688421e+01 
4 1  6.298597521826e+02  -4.498154646478e+02   4.413601484330e+01 
5 1 -1.160689727403e+01   2.543196196409e+02   1.651355116720e+02 
6 1  9.105950083432e+01   1.829861641906e+02   3.760585149807e+02 
7 1 -1.684289610610e+02   2.278180781084e+02  -7.235095847583e+01 
8 1  3.041220156847e+02  -3.755773332802e+02  -1.285646320451e+02 
8
Step 53000
1 1  5.048786500105e+01   2.764333966517e+02  -2.788715715586e+02 
2 1  2.640916246419e+02  -5.218945840998e+02  -5.507677784836e+02 
3 1 -2.630955675701e+02  -2.569847024276e+02   1.324977720980e+02 
4 1  3.161195126027e+02  -3.647147413026e+02  -3.016976054217e+01 
5 1 -3.227665073275e+02   7.588433905561e+01   8.146148956721e+01 
6 1 -9.133167394995e+01   4.248157511539e+02   5.440478705508e+01 
7 1 -3.822198336378e+01   2.007273950098e+02  -2.842477418972e+02 
8 1 -2.341429453933e+02  -4.744978677256e+01  -6.434918753883e+02 
8
Step 54000
1 1 -1.724654448453e+01   2.874043509004e+02   2.667782625055e+01 
2 1 -1.956377792343e+02  -2.252300730950e+02  -1.398676273014e+02 
3 1  1.659197189213e+02  -4.494677279055e+02   9.160826240833e+01 
4 1 -3.351440758139e+02   7.707746769277e+01   1.752692646624e+02 
5 1 -4.459055408581e+02  -2.268094038718e+02  -9.738206186506e+01 