8
Step 0
1 1  3.023859026055e+02   2.378816802784e+02  -9.555576813497e+01 
2 1  2.697713000661e+02  -2.546322453998e+02  -6.199506671967e+02 
3 1 -6.255592878208e+02  -1.652719680071e+02  -4.327187349958e+02 
4 1  1.094359229731e+02  -2.812415677186e+02   5.182986855887e+02 
5 1  6.418775273896e+01  -4.157455463467e+02  -2.316845659138e+02 
6 1  2.785438408206e+02   2.531813734805e+02   6.452012672630e+01 
7 1  1.707535445606e+02  -1.773918968688e+02  -4.312858342593e+00 
8 1 -5.187397608193e+02   9.509279551745e+01  -3.168950203061e+02 
8
Step 1000
1 1  1.786892001314e+02  -1.998894743742e+02  -4.646067015298e+01 
2 1  1.468308914608e+02   9.089795450724e+01  -8.313541292165e+01 
3 1 -1.772711045615e+02   3.817149134939e+02  -5.435899797916e+02 
4 1 -1.692838275691e+02  -1.353289421026e+01  -2.677746884745e+02 
5 1  2.737978738594e+01   1.482735095153e+02  -5.116363317511e+02 
6 1 -2.313093471457e+02  -2.234648435469e+02   2.551520657950e+02 
7 1  3.866392687417e+02   2.302307067503e+02   3.929509585786e+01 
8 1  6.134712873355e+02   3.620921816676e+02  -2.261114906222e+02 
8
Step 2000
1 1  2.511526258822e+02  -1.081153868160e+02  -7.074826530638e+01 
2 1 -5.691587361798e+00  -1.156396060913e+02  -2.315651960273e+02 
3 1 -6.028033309596e+01   7.409979463039e+01   4.747866036790e+01 
4 1 -1.642262938414e+01  -2.169638426527e+02   2.427539606403e+02 
5 1  7.889661813851e+01  -2.451656590763e+01  -5.167067210213e+02 
6 1  4.546233476657e+00   1.048550756476e+02  -1.428397929381e+02 
7 1 -2.212676111015e+02   2.078557679745e+02  -3.665007240481e+02 
8 1 -8.359786635220e+01  -1.231070689385e+02  -2.337310348443e+02 
8
Step 3000
1 1  2.536705999035e+01   2.233659448717e+02   8.125650923212e+00 
2 1  5.237799975415e+01  -2.730508778647e+02  -3.180648306435e+02 
3 1 -7.352626712572e+01   2.301396300301e+02  -2.049826037621e+02 
4 1  1.122974265762e+02  -5.070771485810e+02   3.177745307598e+02 
5 1  1.948419379175e+02   3.179725915038e+02  -1.520986899457e+02 
6 1 -7.660047765699e+01   1.935698093931e+02  -1.355184718180e+02 
7 1 -1.686130740513e+02   7.057331883462e+01  -3.643704777081e+02 
8 1 -3.792254298316e+02   2.323664346441e+02  -5.109630027867e+02 
8
Step 4000
1 1 -1.978213814716e+02   2.199229589599e+02  -5.363789412243e+02 
2 1  5.050052708717e+01  -2.682577064392e+02  -1.257868787201e+01 
3 1 -7.000022891009e+01  -4.962054331983e+01   1.754080477960e+02 
4 1  9.550767405363e+01  -3.777718234200e+02  -6.399596392311e+01 
5 1 -1.114445330424e+02   1.168630146580e+02  -2.481111033445e+02 
6 1 -2.073835426497e+02   2.126756645482e+02  -2.148782825963e+02 
7 1 -2.480472221161e+02   7.854772780591e+01  -1.892579763159e+02 
8 1 -2.980089038058e+02   2.677818645620e+02  -1.804862298220e+01 
8
Step 5000
1 1  1.113436658154e+02  -1.660288715709e+01  -5.224229609012e+00 
2 1  1.285345320181e+02   3.210514218859e+02  -5.178428331435e+02 
3 1 -2.748602567460e+02   2.510816263670e+02  -2.455074110684e+02 
4 1  1.982125431206e+02   2.638942122314e+02   2.750064383907e+02 
5 1 -3.276922999855e+02   2.066090281371e+02  -2.674450962323e+02 
6 1  2.452443130670e+02   6.054225886818e+02  -2.179412746196e+02 
7 1  2.517704822640e+02   1.058916028507e+02  -2.910464120662e+02 
8 1  1.756586617431e+02   8.726008470379e+01  -2.621264955426e+02 
8
Step 6000
1 1 -1.461072019607e+02  -1.286599179994e+02  -2.838895276635e+02 
2 1  6.484051044962e+01  -1.789444310612e+02  -2.585355525675e+02 
3 1 -3.182286208959e+02   3.411178229050e+02   9.948537276810e+01 
4 1 -7.091922168449e+01   1.688762928564e+02   3.567545506601e+02 
5 1 -8.637684123238e+01   4.006236350611e+02  -4.230067948068e+02 
6 1 -3.597859738553e+02   4.571797559501e+01  -9.779743819757e+01 
7 1  2.922367658208e+02   6.651426922339e+01  -3.240662604575e+02 
8 1 -2.740183980070e+02  -9.904168757123e+01  -3.535494265831e+02 
8
Step 7000
1 1 -6.604568762562e+00  -8.870488822258e+01  -1.155380632273e+02 
2 1 -1.252388742232e+02   3.420964832542e+01   6.066472591608e+01 
3 1 -4.932245495836e+02   3.977413003444e+02  -2.218210701070e+02 
4 1  1.688978622285e+02  -1.035828766743e+01   5.579125223059e+02 
5 1  1.673670230715e+02   3.386030413241e+02  -5.163602875779e+02 
6 1 -1.017529090830e+02   3.848962391328e+02  -4.128436661487e+02 
7 1 -3.052726844753e+02   1.843160163274e+02  -4.696100035430e+02 
8 1  2.089100672321e+02   1.715811143911e+01  -2.713706969172e+02 
8
Step 8000
1 1 -7.702378977152e+01   1.968764527787e+02  -2.746865097771e+02 
2 1 -2.695650206308e+02  -2.783751130950e+02  -1.405789133524e+02 
3 1 -2.330762859908e+02   5.071144176889e+01   1.895503719153e+02 
4 1 -5.841495765609e+01  -4.722464163685e+02   7.094432612900e+02 
5 1 -4.510561294721e+01   4.981005342859e+02  -6.193701248963e+02 
6 1 -4.643592320177e+02   3.933694101524e+02  -7.543838336625e+01 
7 1 -3.269929670302e+02   5.885445478015e+02  -2.041313989888e+02 
8 1  1.638307277561e+01  -3.267231922142e+02  -9.102661052446e+01 
8
Step 9000
1 1 -3.867104053660e+02   5.794907681059e+01  -3.970356690197e+02 
2 1  1.519109207031e+02   1.084125931901e+02  -3.636513874712e+02 
3 1 -1.455514783824e+02   5.876988292011e+02   7.967861480142e+00 
4 1 -1.480610109319e+02  -4.560484589461e+02   1.144156924931e+02 
5 1  2.732255608922e+02   3.806885559235e+02  -2.998685209081e+02 
6 1 -1.008863971418e+02   1.665795014550e+02  -1.446315479392e+01 
7 1  1.948151420265e+02   4.144876354162e+02  -3.086359167211e+01 
8 1 -7.053710642075e+01   2.075690648903e+02  -9.506757689743e+01 
8
Step 10000
1 1 -1.539254136798e+02  -1.740686093748e+02   7.941640691884e+01 
2 1 -5.395784963764e+01  -1.971131692384e+02   9.653886654587e+00 
3 1 -2.991909131400e+02   7.006063149837e+02  -1.980192970717e+02 
4 1 -6.133716643042e+01   1.782545924346e+02   8.705021050844e+02 
5 1 -1.328426912316e+01   6.968384186566e+02  -1.415771837055e+02 
6 1  2.358854937268e+02   3.397736460180e+02  -2.858184837268e+02 
7 1 -2.249999444096e+01  -1.714724621357e+02  -2.920822718415e+02 
8 1  9.359961212485e+01  -1.054319526949e+02   3.923070832022e+01 
8
Step 11000
1 1 -1.603861412442e+02  -3.683482357258e+02  -9.765741309835e+00 
2 1 -5.938204284056e+01   3.464157099166e+02  -1.080205723685e+02 
3 1 -6.502575410266e+02   5.593552752469e+02   6.665625486102e+01 
4 1  3.681197359219e+02   1.554709232385e+02   7.066716522732e+02 
5 1  1.064265248496e+02   4.234261156706e+02  -5.261807680209e+02 
6 1 -1.181285466922e+02   1.644353006706e+02  -3.608679530661e+02 
7 1  2.071821751608e+02  -1.508586739724e+02  -1.175135640880e+02 
8 1  9.019449565437e+01  -1.666009002021e+02   6.376798793409e+01 
8
Step 12000
1 1 -7.794418735931e+01  -1.719195103782e+02  -2.129798820180e+02 
2 1 -3.875065445607e+02  -2.408395983057e+02   4.779081009442e+02 
3 1 -3.918777507349e+02   6.313911345269e+00   6.847649477670e+01 
4 1  1.222949051076e+02  -1.731025256462e+02   5.579181925748e+02 
5 1 -2.699297879230e+02   1.800645019930e+02  -3.315512209728e+02 
6 1 -3.892902546942e+02   2.816198204672e+02  -2.242631269139e+02 
7 1  1.323898024586e+02  -2.104503575791e+02   1.577883027842e+02 
8 1 -3.204181566281e+02   2.685005660804e+02   8.221048293659e+01 
8
Step 13000
1 1 -1.622833225195e+02   3.302572929640e+01   1.325796900326e+02 
2 1  1.242929751149e+02   1.073260544434e+02  -3.014266412195e+02 
3 1 -4.883969698399e+02   3.800000771611e+02  -4.123623805103e+02 
4 1  1.647051693207e+02  -2.547225522663e+02   1.017198925581e+03 
5 1  5.649470797261e+02   1.901797748514e+02  -3.435006801360e+02 
6 1 -2.411930394342e+02   5.627246871806e+02  -1.614391319552e+02 
7 1 -1.540458451546e+02   2.545575536987e+01   2.772138253228e+01 
8 1  7.062511939248e+01  -1.633165115570e+02   1.551923522023e+02 
8
Step 14000
1 1 -2.422798086121e+02  -1.591679908790e+02  -1.308760361585e+02 
2 1 -7.703095371138e+01   2.552624445694e+01   4.490586257255e+02 
3 1 -2.307587089044e+02   7.454807844207e+02   2.793180836545e+02 
4 1  7.018455542950e+01  -2.387158229677e+01   3.298613769507e+02 
5 1  5.391984629093e+02   4.932722202510e+02  -1.647710483560e+02 
6 1 -1.812168755520e+02   1.264986262337e+02   1.161843109950e+02 
7 1 -3.118303784701e+02  -7.154741854144e+01   2.600307941256e+01 
8 1  3.195783683787e+02  -4.482131706025e+02   3.052854099907e+02 
8
Step 15000
1 1 -7.691732632918e+01  -2.724035172754e+02   9.747853260851e+01 
2 1 -3.459736272898e+02   2.155318349604e+02   1.208055353314e+02 
3 1  4.348812195916e+01   6.918153012272e+02  -2.732668819232e+01 
4 1 -2.053964290147e+02   7.656255811897e+01   4.432044344114e+02 
5 1  4.738197931375e+02   3.960058707501e+02  -3.112271028347e+02 
6 1 -5.733436686604e+01  -4.969543344559e+01  -1.353146960330e+02 
7 1  1.040413054209e+02  -2.270262133574e+02  -3.146371778553e+00 
8 1  1.749809058477e+02  -5.090797987812e+02   4.352585863410e+02 
8
Step 16000
1 1 -2.778302914505e+02  -1.775162208205e+02   6.961674542436e+02 
2 1  8.176374956313e+01  -2.046953091790e+02   2.923430528860e+02 
3 1 -4.991473882648e+02   4.181072306061e+02   1.925179575073e+02 
4 1  1.474508161978e+02  -1.212531331451e+02   4.540137015962e+02 
5 1 -2.629963676209e+02   5.339526767203e+02  -8.393553112385e+01 
6 1  5.058211374824e+00  -4.707008645107e+01   2.753412297107e+01 
7 1 -4.304245142434e+01   1.296968318799e+01   6.402714273754e+01 
8 1  7.651187164801e+01  -4.377243529716e+02   1.228018918226e+02 
8
Step 17000
1 1  1.121404919550e+01  -1.366866889583e+02   4.922459177456e+01 
2 1 -7.288426716999e+01   2.138810270539e+02   2.421047803267e+02 
3 1 -3.118358920693e+02  -1.393833786359e+02  -5.000967591532e+02 
4 1 -1.474668759604e+02  -2.628695513286e+02   2.763593876632e+02 
5 1 -2.710486636278e+01   2.282131416826e+02   1.344205325269e+02 
6 1  2.385617702224e+02  -1.769490682904e+02   2.403268575623e+02 
7 1 -2.425391530113e+02  -2.557396904101e+02   2.533075193013e+01 
8 1 -1.083729402793e+02  -3.828952626888e+02   4.794911806513e+02 
8
Step 18000
1 1 -1.511481790455e+01   2.413956070165e+01   9.680503811419e+01 
2 1 -1.198981545930e+02   2.425518156298e+02   6.177677462853e+02 
3 1 -2.747764827359e+01  -1.174270812659e+02   2.007714055703e+02 
4 1  6.411478518817e+02  -3.358903160845e+01   4.338282767360e+02 
5 1  4.287543794199e+02   2.251275001827e+02  -6.174663331920e+01 
6 1 -4.070647658145e+02   2.556356791879e+02  -1.476934786329e+01 
7 1  3.332078875364e+01  -1.636443607012e+02   3.076134268709e+02 
8 1  4.246552542202e+01  -3.918323361953e+02   2.786194945001e+02 
8
Step 19000
1 1 -1.520781190884e+02  -1.268203801556e+02   9.175633418847e+01 
2 1 -1.260766341499e+01   3.466567091458e+02   3.256940340716e+02 
3 1  3.235615251929e+01   5.586038035367e+02   2.015166846980e+00 
4 1  3.101497613283e+02  -6.599190296821e+01   1.406630624019e+02 
5 1  1.657293260619e+02   2.372531334001e+02  -2.427966975004e+02 
6 1  3.183405403191e+02   1.658176659034e+02   2.571683772764e+02 
7 1  2.634063704209e+02  -5.903445204572e+02   4.316044233157e+02 
8 1  1.657638207873e+02  -6.859943243064e+02   4.296760373111e+02 
8
Step 20000
1 1 -9.945397340966e+01  -1.970585618363e+02   4.899408970108e+02 
2 1  1.867192036064e+01  -3.004638469444e+02   7.499444765264e+02 
3 1  2.452286314719e+02   3.149196130720e+02  -1.618944888538e+02 
4 1 -5.380316745324e+02  -1.214726604758e+02   1.349955728455e+02 
5 1  5.296727444407e+02  -4.176883906295e+01  -1.114129676708e+02 
6 1 -1.556509497736e+02   2.109133977150e+02   2.965603077940e+02 
7 1 -1.663015920867e+02  -2.149028799549e+02   5.418146002461e+01 
8 1  3.955696867381e+02  -5.224352995779e+02   3.487838343053e+02 
8
Step 21000
1 1  2.804560287029e+02  -1.873157610905e+02   4.533096626737e+02 
2 1 -1.045740777158e+02  -2.247153173612e+01   1.435171698804e+02 
3 1 -3.472296880508e+02   7.454543290811e+01  -3.802238018784e+02 
4 1 -2.771268652695e+02  -1.374726538926e+02   2.032476707474e+02 
5 1  2.925928307107e+02   5.121559383386e+01  -4.885484086794e+01 
6 1 -2.774149853185e+02  -8.960830147765e+01   2.666927633564e+02 
7 1  1.885622048548e+02  -2.626102748506e+02   3.070093407889e+02 
8 1 -1.439854528609e+02  -9.987772167148e+02   2.865864612558e+02 
8
Step 22000
1 1 -1.809081578509e+02   4.923679555509e+01  -9.336146414259e+01 
2 1  1.319449990074e+02   1.308959156691e+02   4.434432357904e+02 
3 1  4.528657002099e+02  -3.316033700673e+02   1.468473746836e+02 
4 1  2.896823823943e+02  -2.630960696400e+02   2.910673544917e+02 
5 1 -1.013205019906e+02   2.757762691765e+02  -1.180616580930e+02 
6 1  7.544808166547e+01  -1.669168362092e+02   3.726315324545e+02 
7 1  7.199353377814e+01  -3.026105631572e+02   2.511530241834e+01 
8 1  1.375575452921e+02  -5.509135321725e+01   2.568830022656e+02 
8
Step 23000
1 1  6.766810052616e+01  -1.343975184561e+02  -3.239816221205e+01 
2 1 -3.190608395938e+01   2.129029470122e+02   1.864180357261e+02 
3 1  2.477599719787e+02  -1.518139292148e+02  -3.785597764480e+02 
4 1  7.494736702459e+01  -2.489041707199e+02  -6.601081015986e+00 
5 1  2.181580490221e+02  -1.143013288901e+02  -1.693799325064e+02 
6 1  1.539038650138e+02  -3.587915363895e+02   7.636188802540e+01 
7 1  1.709308678104e+02   9.714180731452e+01   3.987753164598e+02 
8 1  1.525718325104e+02  -6.211527772737e+02   5.169020814037e+02 
8
Step 24000
1 1 -5.399991806059e+01   2.495526224588e+02   2.629158323842e+02 
2 1  4.396200205677e+02   3.541268563602e+02   6.288134563631e+02 
3 1  1.375856857164e+02  -5.326841354582e+02  -9.699123659218e+01 
4 1  1.444992548595e+02  -4.587080814592e+01  -3.754428265706e+01 
5 1  7.343934056078e+02   6.328910511396e+01   2.038680590237e+02 
6 1  3.186583380207e+01   1.828763066962e+02   2.138283986036e+02 
7 1  1.841784274298e+02   8.331743062749e+01   9.460085484733e+01 
8 1  6.523047375545e+01  -5.205737610346e+02   6.635110350980e+01 
8
Step 25000
1 1  2.491181062791e+02  -4.905849124301e+02  -5.082764977388e+01 
2 1 -4.233341694032e+02   8.058534758215e+01   3.668610617889e+02 
3 1  3.589722706368e+02  -1.585267038951e+02  -2.610913785085e+02 
4 1 -3.306374701871e+02   1.051190201276e+02  -5.487205096436e+02 
5 1  2.928413809187e+00  -2.926987029156e+02  -1.767546873172e+02 
6 1 -1.105027836513e+02  -2.870066207478e+02   1.989662075624e+02 
7 1 -2.478725625098e+02  -7.606538740164e+02   3.117154680437e+02 
8 1  1.825883171916e+02  -5.345377725406e+02   2.790436259775e+02 
8
Step 26000
1 1 -2.061832181453e+02   8.160005262545e+01   7.711127253083e+01 
2 1  1.892361726433e+02  -2.265392695873e+02  -6.166489293501e+01 
3 1  5.166325570421e+02  -6.440995213424e+01   1.562562876698e+01 
4 1 -3.630405551504e+02  -2.763355758493e+02  -2.241392053419e+01 
5 1  3.212706440709e+02  -2.787689085236e+02   5.786239911022e+01 
6 1 -1.264588011375e+02  -1.397851469428e+02   1.401902400146e+02 
7 1 -9.697398872382e+01   8.022060704265e+00   2.315849115543e+01 
8 1  3.187040138452e+02  -3.846677745561e+02  -1.401915978121e+02 
8
Step 27000
1 1 -9.336758770944e+01   1.853198458414e+02  -4.019011804067e+02 
2 1  1.854940762603e+02  -1.070268269696e+02   3.459368219599e+02 
3 1  3.931331825620e+02  -3.739589545425e+02  -2.288363333855e+02 
4 1 -2.521783841895e+02  -1.255488861151e+02  -1.136992152780e+02 
5 1  5.774698277059e+02  -2.467520412181e+02  -2.710158447470e+01 
6 1 -1.200686840642e+02   8.259852648799e+01   3.943082615319e+02 
7 1  1.348809477614e+02  -1.484046819843e+02  -2.773095616755e+02 
8 1  2.353343160319e+02   2.018709644291e+01   1.106291768584e+02 
8
Step 28000
1 1  2.517287924195e+02   2.452005846051e+02  -1.839522770468e+01 
2 1  5.893061860469e+01   4.128308670754e+02  -3.942594437362e+00 
3 1  6.886551254873e+02  -6.378406818312e+02  -3.235036851670e+02 
4 1  3.568181126998e+02  -3.899555321133e+02  -3.434168138268e+02 
5 1  3.340305823467e+02  -9.609270238417e+01   4.492269590760e+01 
6 1  3.259822008731e+02  -1.588370750392e+02   3.440966860674e+02 
7 1  2.986774810234e+01   2.163297496364e+02  -5.254435785041e+01 
8 1  1.121002844668e+02   4.051207639075e+02   3.501695670353e+00 
8
Step 29000
1 1 -9.223807080421e+01  -2.866127722910e+02  -1.302549969622e+02 
2 1 -2.233333734285e+02   2.138829582044e+02   1.363576462563e+02 
3 1  2.299892331935e+02  -2.047582063938e+02  -9.150117023397e+01 
4 1  3.431002118734e+01  -2.258775419388e+02  -4.183600902063e+02 
5 1 -1.706403376885e+01   5.189784727297e+01  -3.037129759588e+02 
6 1 -3.211586018471e+02  -3.075296552277e+02   1.798034266287e+02 
7 1 -1.912807668981e+02  -8.962041745986e+01  -4.131435000285e+02 
8 1 -2.541781745467e+01  -3.872318878596e+02   7.879909655066e+01 
8
Step 30000
1 1  9.352236494057e+01  -2.265976736998e+02  -4.018263793560e+02 
2 1  8.129090299757e+01   2.438607847482e+02   2.815907029982e+02 
3 1  5.295925531755e+02  -9.046153540500e+01  -2.058540287763e+02 
4 1 -3.936476346421e+02   1.045806560791e+02  -6.031990521310e+02 
5 1  1.307809264961e+02  -5.005075879534e+02   2.002883318044e+02 
6 1  1.568227308454e+02  -1.916295780402e+02   2.944528653773e+02 
7 1  1.001392773558e+02   1.767417580927e+02  -2.712358487014e+02 
8 1 -3.701112193666e+02   2.531320233717e+02  -2.005330805888e+02 
8
Step 31000
1 1  1.677723023802e+02   7.142552267343e+01  -2.900231425879e+02 
2 1 -1.445055995948e+02  -1.746865154123e+02  -3.046565802523e+02 
3 1  4.271805779856e+01  -4.231409415360e+02  -2.339987170077e+02 
4 1 -4.227600009535e+02  -3.358421052260e+02  -6.067449852584e+02 
5 1 -1.850167004869e+02  -3.533725219765e+02   1.966233078564e+02 
6 1 -1.776449817869e+02  -1.859606358037e+02   1.008397180622e+02 
7 1 -2.735626166342e+02   2.172157886968e+02  -2.806871331872e+02 
8 1  1.820663671581e+02  -1.855746702451e+02  -5.466707304116e+02 
8
Step 32000
1 1  1.135222351821e+02   5.824980314782e+02  -4.287671907025e+02 
2 1  8.677732486892e+01  -1.516384960429e+02   5.344388545241e+01 
3 1  8.726870114583e+02  -5.240611111404e+01   5.360707482163e+01 
4 1 -1.155220896803e+02  -2.619113627793e+02  -4.053424821798e+02 
5 1  3.186333402971e+02  -3.516948044046e+02   1.656659199244e+02 
6 1  9.862264028149e+01   4.196902110653e+02   2.345317895596e+02 
7 1 -4.461551497600e+01   4.218517676151e+02  -1.855224044902e+02 
8 1  1.040129718074e+02   6.097963211306e+02  -5.370570982022e+02 
8
Step 33000
1 1 -1.517607641452e+02  -1.416454220048e+02  -4.128147552090e+02 
2 1  6.668442940129e+01   1.236709850190e+02   3.160871414549e+01 
3 1  3.692683928580e+02  -1.204313233846e+01  -2.304896776796e+02 
4 1 -4.052325073454e+02   2.164961710273e+02  -5.590153861227e+02 
5 1  2.643158790403e+01  -4.835104193389e+02  -4.795565181762e+00 
6 1 -2.832987495766e+02  -1.912233563296e+02   9.156401439011e+01 
7 1 -5.964644930574e+01   1.694831030957e+02  -1.047741611616e+02 
8 1  7.169602841033e+01   3.023253568579e+02  -1.795765149855e+02 
8
Step 34000
1 1  2.757774053328e+02  -3.692684885867e+02  -2.064063384311e+02 
2 1  2.503529018765e+02   3.735548565741e+02  -1.635694749536e+01 
3 1 -9.194976768029e+01  -1.974234580235e+02  -1.654909801114e+02 
4 1 -3.946536854034e+02   4.433183774800e+01  -2.256116256904e+02 
5 1 -1.795340482321e+02  -4.098726550659e+02  -7.047463031087e+01 
6 1 -1.482006297688e+02   9.146532286513e+01  -9.148981943028e+00 
7 1 -2.746654972280e+02   2.931084482271e+02  -3.706667578803e+02 
8 1 -2.308688098930e+02   2.096052413766e+02  -4.416439465134e+02 
8
Step 35000
1 1  2.341021320722e+02  -1.600656747763e+02  -5.297635630178e+02 
2 1 -6.522954633360e+02   3.268561896503e+02   1.248719419769e+02 
3 1  8.804546202100e+01  -3.295511947500e+02   2.049812297107e+02 
4 1 -6.461185652248e+02   1.241741328979e+00  -3.379816396904e+02 
5 1 -1.811405730715e+02   9.661208573877e+01  -1.184232704748e+01 
6 1  2.711768311824e+01  -1.191273499468e+02   3.839963977495e+02 
7 1 -2.107161713079e+02   7.293826360673e+01  -4.733304795121e+02 
8 1 -4.879428245774e+02   2.007503605646e+02  -3.437991399866e+02 
8
Step 36000
1 1 -3.576847201692e+01   3.042137040967e+02  -2.173423288382e+02 
2 1  6.638273810001e+02  -2.465226179094e+02  -3.221082483106e+02 
3 1  4.222402103273e+02   2.674604082193e+02  -7.498232634249e+00 
4 1 -2.868959952504e+02   3.468614860608e+02  -4.494322452521e+01 
5 1 -1.174883852202e+02  -1.350010799639e+01  -1.989825766968e+01 
6 1 -2.302373800170e+02   1.575458327189e+02   1.665760218947e+02 
7 1  3.121901603663e+02   5.639602428606e+02  -4.101098902197e+02 
8 1 -1.852037377757e+02   1.626713607235e+02  -5.193432136573e+01 
8
Step 37000
1 1 -1.308366523116e+02   2.026007268528e+02  -2.306672674257e+02 
2 1 -4.147664291487e+01  -1.854301582548e+02  -1.167070974004e+02 
3 1 -6.904945520912e+01   1.805801575878e+02   1.614453261871e+02 
4 1 -2.280124128378e+02   2.129346598915e+02  -3.621820018664e+02 
5 1 -1.736020839266e+02  -3.357738893249e+02   3.009531993997e+02 
6 1 -7.878417080819e+01   6.289094081663e+01   3.360750830846e+02 
7 1 -2.602779336636e+02   1.136307730839e+02  -3.058943776113e+02 
8 1  3.749518797445e+01   3.210000078435e+02  -4.840940845863e+02 
8
Step 38000
1 1  4.078478589948e+02  -2.424610568955e+02   8.427777762752e+01 
2 1 -2.713158122063e+02   3.012260157005e+02  -2.262091717397e+02 
3 1  2.835968202498e+02   2.869160612748e+02   3.464447397268e+02 
4 1 -2.567369748822e+02  -4.477472928622e+01  -1.465634997439e+01 
5 1 -1.414313508057e+01   3.177272260615e+02   2.458660535186e+02 
6 1 -9.136097956587e+01   1.663988492688e+01   8.385548979834e+01 
7 1 -1.195930445295e+02   3.675835273010e+02  -6.031180135557e+02 
8 1 -2.245961916439e+02   7.217778385220e+02  -3.729854336969e+02 
8
Step 39000
1 1  2.487946279964e+02  -2.178217161924e+02  -1.162865697095e+02 
2 1 -3.407002199517e+02  -1.458224137787e+02  -1.428011269965e+02 
3 1 -5.056610611087e+02   1.657830360654e+02   7.374268888453e+01 
4 1 -5.341297949819e+02   1.219991226852e+02  -5.494182037949e+01 
5 1 -1.802070364059e+02  -2.863800345949e+02   1.476145765403e+02 
6 1 -5.859703324951e+02   8.831533248139e+01   1.434966721685e+02 
7 1 -3.455437861054e+02  -1.886399477229e+02  -2.968590958466e+02 
8 1 -1.835751278184e+02   2.313303906196e+02  -2.901534052658e+02 
8
Step 40000
1 1 -1.655176852375e+02   8.450737871480e+00  -1.770518312631e+02 
2 1  2.118550890904e+02   1.538277770185e+02   4.087509546609e+02 
3 1 -2.134419653346e+02   7.493215833436e+01   7.947708574263e+01 
4 1  6.072426171476e+01   7.601215442977e+02  -1.352101366531e+02 
5 1  1.280044834962e+02   2.200358861823e+02   5.542104876330e+02 
6 1 -4.510923894382e+01   3.356878851397e+02   1.320420031723e+02 
7 1 -3.282692589079e+02   8.313314497877e+00  -5.938936875046e+02 
8 1 -1.393378364236e+02   5.082461998665e+02  -2.503418404893e+02 
8
Step 41000
1 1  1.448686498318e+02   9.025814721841e+01   3.226252652218e+02 
2 1 -4.749840588758e+02   1.645705337389e+02  -6.101974045901e+02 
3 1  2.352416315593e+02   2.888916516830e+02   1.706677735936e+02 
4 1 -2.923439287567e+02   3.962309550534e+02   2.923393660410e+02 
5 1 -1.246862630754e+02   2.322954172490e+02   2.529206860531e+02 
6 1 -2.037822875269e+01  -2.827611427687e+02   5.141925084662e+02 
7 1  3.726717167966e+02   2.112625770036e+02  -4.661652235999e+01 
8 1 -1.223593622115e+02   4.656084246025e+02  -1.183612808200e+02 
8
Step 42000
1 1  4.058254941060e+02   5.061900738433e+02   2.343449380634e+02 
2 1 -5.209389731628e+01  -4.363350419699e+02  -2.842802262775e+02 
3 1 -1.617053068948e+02   2.360743002723e+02   1.697682732315e+02 
4 1 -2.281271010729e+02   3.433352049327e+02   8.480292421841e+01 
5 1  3.362607539256e+02  -2.321814318754e+02   3.875144248131e+02 
6 1 -1.655470397730e+02   4.013196074354e+02   2.114672177596e+02 
7 1 -8.399710960918e+00   3.238182739225e+02  -6.999178646958e+02 
8 1 -7.768441503466e+01   3.721008906727e+02  -1.936887958471e+01 
8
Step 43000
1 1 -1.108458683527e+02   5.642898165924e+01   2.474167439592e+02 
2 1 -8.741467525699e+01  -4.297071594787e+02   7.052372043841e+01 
3 1 -3.921545489740e+02   2.005864919803e+02   2.805372535527e+02 
4 1 -2.548385253153e+02   3.945705248131e+02   2.454812951641e+02 
5 1 -1.678178842706e+02  -2.566813794849e+02   3.345098330171e+02 
6 1 -2.185317977496e+02   3.142939601679e+01   1.042036657999e+02 
7 1 -1.086329514756e+02   1.220298617688e+02  -2.131498118655e+02 
8 1 -3.553685158845e+02   2.271701637989e+01  -6.452674200884e+01 
8
Step 44000
1 1  1.150589142092e+02  -3.408593807783e+02   2.898575461780e+02 
2 1 -2.036928020795e+02   1.298757766490e+02  -1.794482357355e+02 
3 1  3.061058264300e+01   5.455668903409e+02   4.684682733527e+02 
4 1 -3.775208555401e+02   4.904585585637e+02  -1.893165396648e+02 
5 1  3.608513869168e+02  -7.271899143870e+01   1.854722071840e+02 
6 1 -1.391077838432e+02  -2.629204728144e+02   4.193412596343e+02 
7 1 -6.911257524277e+01   3.299341601053e+02   2.417700143269e+01 
8 1  1.557112496774e+02   4.144620147873e+02   2.334093629026e+01 
8
Step 45000
1 1  2.158591554451e+02   8.639209733611e+01   3.342158590670e+02 
2 1 -1.490309421559e+02   6.417540154592e+01   1.944309578283e+02 
3 1 -2.515723336704e+02   5.148598077866e+01   2.067957633093e+02 
4 1 -3.350172369987e+02   2.857003844320e+02   2.441488480040e+01 
5 1  3.696117200913e+02  -2.358647388857e+01   2.789481418883e+02 
6 1  4.308157738250e+01   2.878081574596e+02   1.611264092933e+02 
7 1 -2.618581998775e+01  -2.554268666652e+02  -1.741571734596e+02 
8 1  1.910229894851e+02   1.534611394769e+02   3.627742781789e+02 
8
Step 46000
1 1 -3.853753041482e+01   3.796619693669e+02   1.248225811640e+02 
2 1  1.705170006540e+02  -1.723021858449e+02  -8.034531126738e+01 
3 1 -2.058280434099e+02  -4.791847860966e+01   3.126650745391e+02 
4 1  8.492254972841e+01   5.479360247405e+02   1.939665504322e+02 
5 1  6.978981815867e+01  -2.557518727219e+01   2.926439845050e+02 
6 1  3.948534396772e+02   9.922019546884e+01  -2.828040284114e+01 
7 1  2.666760134092e+02   3.168378121419e+01   4.237742632437e+02 
8 1  2.353308375969e+02   7.007358615219e+02   8.940588219385e+01 
8
Step 47000
1 1  4.072332929454e+01   1.337433645418e+02   5.067486960162e+02 
2 1  2.756388593602e+02  -4.787857310671e+02  -1.797450000702e+02 
3 1 -6.414494621646e+01  -3.307206055428e+01   3.211025992672e+02 
4 1 -5.019392021097e+02   1.517231150883e+02   1.094628563174e+02 
5 1 -1.723234709148e+01  -1.486743352126e+02   8.180653116140e+01 
6 1  9.850790868212e+00  -1.088613211299e+02   3.372185029936e+02 
7 1  1.709415662038e+01  -1.133043007787e+02  -8.838154636709e+01 
8 1 -1.954284701222e+01   9.758250159047e+01   3.525440035401e+02 
8
Step 48000
1 1  1.013791415733e+02  -7.293859520151e+01   8.617882589860e+02 
2 1 -2.980817709929e+02  -5.102212897432e+02  -2.845135238803e+02 
3 1 -1.281639911135e+02   2.163897307834e+02   6.443594572333e+01 
4 1  1.469699539660e+02   2.089034169451e+02  -2.726394743360e+01 
5 1 -1.537840373495e+02   1.041317224739e+02  -1.369260734855e+02 
6 1  1.835367614392e+02  -2.282118703192e+02   4.204410697466e+02 
7 1  1.410616008626e+02  -5.018442310645e+02   6.983319299364e+01 
8 1 -3.365474739312e+02   3.701749768036e+02  -9.411440331167e+01 
8
Step 49000
1 1  1.095283788507e+02   1.522541226896e+02   5.474857844874e+02 
2 1  5.447399371462e+02  -2.920769506651e+02   1.161699119670e+02 
3 1 -4.363198958991e+02   6.344578436959e+02   4.198840574730e+02 
4 1  7.971434565713e+00   2.983456676295e+02   1.404865059723e+02 
5 1  2.082405855893e+02  -1.588590417075e+02   6.966786122321e+01 
6 1  4.414400006982e+02   6.218228157859e+01  -8.299218490826e-02 
7 1  3.042988397195e+02   2.774714798068e+01   1.246377119591e+02 
8 1  2.191069350058e+02  -1.613217989321e+02   7.176209112294e+02 
8
Step 50000
1 1  2.807524171506e+02   4.526027003496e+02  -1.150147255767e-01 
2 1 -1.885228383945e+02  -2.857917496118e+02  -4.522404281244e+01 
3 1 -4.063259750683e+01  -1.170314775761e+02   9.806623794973e+01 
4 1  1.157697968231e+02  -5.814888844600e+01   1.450929542975e+02 
5 1  5.525146182143e+02   3.062023957297e+02  -1.724976436631e+02 
6 1 -1.717496240464e+01  -8.800117806259e+01   4.421279149003e+02 
7 1  3.416960142082e+02  -4.624262367865e+02  -2.845436538994e+01 
8 1  6.834223677156e+02   5.476986508177e+01   5.265013427909e+02 
8
Step 51000
1 1 -1.182001823384e+02  -8.329374274772e+00   6.771813777832e+02 
2 1  1.170373504214e+02  -1.581283881205e+02  -3.403022844901e+02 
3 1  4.001939667348e+02  -3.656880866792e+02   6.067575320381e+02 
4 1 -1.802288033834e+02   1.580392953467e+02   9.737160367374e+00 
5 1  3.152792670568e+02   4.311448672285e+02   6.601787930993e+01 
6 1  4.125097276677e+02  -1.653147008079e+02   2.063813233038e+02 
7 1  3.068738306979e+02  -4.525838545791e+02  -3.186284194858e+01 
8 1  5.941103290875e+01  -5.476907722938e+01   3.589460155821e+02 
8
Step 52000
1 1 -6.901369242632e+01   1.160697082629e+02   4.071683822758e+02 
2 1  2.907697891244e+02  -3.734680501175e+02  -2.255741570692e+01 
3 1 -1.588601041097e+02  -1.568279303322e+02  -4.200951751964e+02 
4 1  1.037786811036e+01   1.293533443159e+02   1.026280419065e+02 
5 1  2.403153626299e+02  -2.234126780235e+02   1.046664363445e+02 
6 1 -3.616095779113e+01   1.136132861399e+02   7.574272881627e+01 
7 1  1.263290822969e+02  -6.610396777966e+02   2.433130245087e+02 
8 1  1.216979805226e+02  -4.521467532451e+01   2.606097120111e+02 
8
Step 53000
1 1  3.057528565140e+02   1.538915330220e+02   5.465791824827e+02 
2 1 -2.386258766631e+01  -2.286903599945e+02   1.314607491455e+02 
3 1  8.001598671804e+00  -3.531979610957e+02  -1.213957594463e+02 
4 1 -1.302588436682e+02   3.562658201079e+02   6.929387121564e+01 
5 1  3.599661090394e+02   1.554689358321e+02   3.233706012523e+01 
6 1  1.876760694716e+02  -1.636214439442e+02  -4.529591766000e+02 
7 1  2.461575674743e+02  -6.292473314241e+02  -2.177396545739e+02 
8 1  2.259111003682e+02  -3.595061989151e+02   5.328996007894e+02 
8
Step 54000
1 1 -1.353087332849e+02  -1.314383376395e+02   1.180230573833e+02 
2 1 -4.885045981278e+01  -5.071431444377e+01  -4.673493329503e+02 
3 1  2.098919280662e+02   4.261173940351e+01   3.717968346865e+02 
4 1  3.554729728706e+02   3.586884954414e+02   2.599510551529e+02 
5 1  1.397929934172e+02  -3.138650475718e+02  -3.515391652437e+02 