8
Step 0
1 1  6.996693238828e+01   7.469439318030e+01   1.326126063853e+02 
2 1 -1.287408018267e+02  -5.142264762559e+01  -6.605502877963e+01 
3 1  2.212272819704e+02   5.224517838276e+02  -4.933316113084e+02 
4 1 -2.264853518711e+01   3.234507045652e+02  -3.003450626458e+00 
5 1 -3.551410567312e+02   1.756872163687e+02   1.943390465091e+02 
6 1 -1.790506797002e+02   4.296312042446e+02   9.244749381836e+01 
7 1  4.142520312552e+02   7.826418517363e+01   1.229819817333e+02 
8 1  4.523983844474e+02   3.572663025112e+02   1.679448558482e+02 
8
Step 1000
1 1  2.047197220525e+02  -5.436596575046e+02  -1.443000386094e+02 
2 1 -4.212977160424e+02   3.804448516988e+02   2.158570555871e+02 
3 1 -1.294038105296e+02  -3.070668749624e+02  -4.004286438669e+02 
4 1 -6.853429057779e+02   5.926440877937e+02  -5.416674867227e+02 
5 1  4.132863305274e+02  -1.532204404282e+02  -1.842996931962e+02 
6 1 -9.912940902379e+01   4.328806947736e+02   3.371082900509e+02 
7 1  4.497961909485e+02   5.998719981157e+01   5.243855453787e+02 
8 1  1.642904732396e+02  -7.196222604828e+01   4.788576107266e+02 
8
Step 2000
1 1  4.286933349471e+01  -2.462356894242e+02   3.257016461260e+02 
2 1 -5.220993754533e+02   4.504864605961e+02   5.832487413353e+02 
3 1  6.822178323266e+02  -1.248792684398e+01  -5.149325274803e+02 
4 1 -4.204130383421e+02   3.339726765212e+02  -1.481483480450e+02 
5 1  1.432140327145e+01   4.513373151533e+01  -2.410535943737e+02 
6 1 -1.014975809325e+02   3.871760476613e+02   8.219466482059e+01 
7 1  4.261108225132e+02   2.413857966133e+02  -1.875278544626e+02 
8 1  3.339451121933e+02   6.137609509264e+02   5.007664926046e+02 
8
Step 3000
1 1  4.614767707009e+01  -4.385581575288e+01   2.296836474349e+01 
2 1 -6.483881022164e+02   1.517350658646e+02   3.656263113972e+02 
3 1  3.591276021109e+02  -3.569425735559e+02  -6.264883641947e+01 
4 1 -3.882884896631e+02  -5.504560281245e+02   1.052359808554e+02 
5 1  2.700957906258e+02  -2.497326588033e+02  -7.058879654669e+01 
6 1 -7.878039707970e+02   5.129793013967e+02  -6.847832223936e+01 
7 1 -1.966390220147e+02  -6.473347967291e+01   3.069347863827e+02 
8 1 -3.275937099555e+02   3.424801474778e+02   2.701610846957e+02 
8
Step 4000
1 1 -5.238777635519e+02   4.064326376543e+01   6.212453813308e+02 
2 1 -3.832495016582e+02   8.742831904749e+02   2.333864884842e+02 
3 1  4.298434080261e+02  -6.397840219728e+02  -4.924539200030e+02 
4 1 -2.977272015054e+02   1.911046795180e+02  -3.013968348089e+02 
5 1 -1.980470241096e+01  -9.096513213422e+01  -1.594964832407e+02 
6 1  6.193282717603e+01  -1.421641524545e+02  -5.618564844444e+00 
7 1 -4.369749346512e+01   6.710783364132e+02   6.347150806483e+02 
8 1 -1.001042639047e+01   7.089817330559e+02   3.956570657818e+02 
8
Step 5000
1 1 -2.364488347080e+02   3.289035938009e+02   3.985389361655e+02 
2 1 -3.856348877625e+02   1.306497206138e+02   1.163124231162e+02 
3 1  4.459800923000e+02   3.179374610705e+02  -7.890298555530e+01 
4 1 -2.410367124499e+02  -5.725683283910e+01  -1.970903407377e+01 
5 1 -6.829959059030e+02   1.252737172055e+02   3.191251300235e+01 
6 1  9.915611175452e+01  -2.611662664723e+02   1.154279873977e+02 
7 1  3.140444340650e+02   3.232214749901e+02   8.346435919700e+02 
8 1  5.913315633555e+00   1.508777225477e+02   1.695078082587e+02 
8
Step 6000
1 1 -2.360968791575e+02  -2.310062501750e+02   8.761644483291e+02 
2 1 -9.984320226711e+01   9.884872490509e+02  -2.021451474845e+02 
3 1  1.583348202780e+01   7.523101561633e+01  -1.307668054895e+02 
4 1 -5.757784913648e+02  -2.519578496496e+01  -2.664749365122e+02 
5 1 -2.703836853013e+02   2.113967099719e+02   3.995361483211e+01 
6 1  3.429102032859e+02  -5.320727642871e+02  -2.680760866186e+02 
7 1 -8.676650042272e+01   5.532495453052e+02   7.410721232979e+02 
8 1  4.373464215212e+02   1.027680730230e+02   2.220108197905e+01 
8
Step 7000
1 1 -1.948949800785e+02   1.302129914873e+02   2.051007650101e+02 
2 1 -4.454798086337e+02   5.365125559896e+01   5.686336724372e+02 
3 1  3.283529146634e+02   1.113907364345e+02   2.238507345642e+02 
4 1 -4.042383202957e+02  -6.373164475417e+02  -3.821484973978e+01 
5 1 -8.395323485905e+02   4.551060564570e+01   2.344772068063e+01 
6 1 -3.267816896387e+02  -5.723128391626e+02  -1.380017416256e+02 
7 1 -1.658634346110e+02   4.484972750617e+02   4.471887517464e+02 
8 1  2.168492255907e+02   2.015793930433e+02   2.182386281162e+02 
8
Step 8000
1 1 -1.830938014078e+02   2.200341938989e+02   7.857323782504e+02 
2 1 -2.775170357637e+02   4.448066267295e+02  -2.454378638825e+02 
3 1 -1.995238193660e+02   1.852550844034e+02   7.425717745258e+01 
4 1 -1.494219789058e+02  -5.422296654541e+02   8.790279617917e+01 
5 1 -7.890600644519e+01  -4.059145991948e+01   3.881517839549e+02 
6 1 -2.792551993403e+02   2.094661518869e+02  -5.876891087164e+02 
7 1 -2.235309164313e+02   3.563462866411e+02   7.770834926205e+02 
8 1  2.452827340514e+02   4.631054803396e+01  -3.219021165060e+02 
8
Step 9000
1 1 -2.810265841886e+02  -2.964047186868e+02   8.290362575221e-01 
2 1 -5.875033080145e+02   7.408998101044e+02   1.329171777100e+02 
3 1  4.649717628671e+02  -5.735638341303e+01   6.089844847133e+01 
4 1 -7.395365911452e+02   3.185713388337e+02  -2.133710245909e+02 
5 1 -7.800823802250e+02  -4.490274332275e+02   3.744404045205e+02 
6 1  2.468419393216e+02  -1.363298720382e+02   3.568240606046e+02 
7 1 -2.682779722200e+02   4.234733576487e+01   3.921248593829e+02 
8 1  2.093192278710e+02  -1.566521720034e+02   5.174570507654e+02 
8
Step 10000
1 1  1.249679909926e+02  -4.825583608265e+01   3.086721589564e+02 
2 1 -2.528083709465e+02   7.474926345565e+02   4.773026651713e+02 
3 1  1.437429004833e+02   3.540117030351e+02  -2.488238745789e+02 
4 1 -5.384696946422e+02   1.774963850665e+02  -7.509263817153e+01 
5 1 -2.866061091012e+01  -1.080561403381e+02   2.421719150243e+02 
6 1  1.724774091993e+02  -5.794275844516e+01  -3.409321854415e+02 
7 1  2.685896944084e+02  -6.590288146270e+02   1.708301279258e+02 
8 1  1.931031376789e+02   5.072292361652e+02   3.467765834056e+01 
8
Step 11000
1 1  5.057695460629e+02  -4.298238778585e+02   2.310819206772e+02 
2 1 -6.548851415413e+02   6.939026780206e+02   4.879281276566e+02 
3 1  3.477275791941e+02  -2.465065472354e+02  -1.413684792829e+01 
4 1 -1.039089776207e+03   6.917735516566e+02   4.184207322311e+02 
5 1 -1.552957555998e+02  -7.808028025319e+02  -1.993692956141e+01 
6 1 -5.039807683172e+02   1.163760271942e+01  -3.338802407333e+02 
7 1  3.575114883907e+02  -5.957690012284e+02   2.338987788099e+02 
8 1 -1.562566594863e+02   7.171163118254e+01   8.853634309789e+01 
8
Step 12000
1 1 -1.224249864146e+02  -3.386308160818e+01   2.188703380024e+02 
2 1 -4.524610194844e+02   4.589118248554e+02   1.815858702909e+02 
3 1  3.459801101477e+02  -6.707557822877e+02  -3.006966536534e+02 
4 1 -5.757775076885e+02  -3.433099256764e+02  -1.510843228390e+02 
5 1  9.306478088254e+01  -4.830476216704e+02   4.858949964300e+01 
6 1  7.717138575551e+01  -2.024412967308e+02   1.890286812670e+01 
7 1  5.144154284890e+01  -7.692272394849e+01  -1.349664755973e+02 
8 1 -6.926619873697e+02   5.352189936267e+02   9.134251430259e+01 
8
Step 13000
1 1 -1.074900006664e+02   4.019844332505e+02   9.463965417027e+01 
2 1 -5.114193585550e+02   2.411335609989e+02   6.669146560308e+01 
3 1  4.003709405999e+02  -3.934719284207e+02   4.047825990721e+02 
4 1 -2.655212920622e+02   2.316907241788e+01   4.531068357191e+02 
5 1  2.239248821124e+02  -1.169188395525e+02  -2.888618152782e+02 
6 1 -5.344389377667e+02   8.776362628705e+00  -4.185953798088e+02 
7 1  1.583776025883e+02   9.472393641769e+01   6.145565506836e+02 
8 1 -2.236922086270e+02  -3.027430640028e+02   2.418204133889e+01 
8
Step 14000
1 1 -1.712047774007e+02   3.597552095437e+02  -1.314193331386e+02 
2 1 -2.329986855209e+02   8.962467757790e+02  -1.787800785772e+02 
3 1  5.025489258895e+02  -3.394780736688e+02   1.949142408808e+02 
4 1  2.049135540803e+02  -3.058292072077e+02   1.170100465907e+02 
5 1 -4.212947452154e+02  -1.221019024465e+02  -3.681174520555e+02 
6 1  2.296610773976e+02  -5.187467375564e+02  -4.282328446328e+02 
7 1  2.790183831569e+02   1.860927157938e+02   4.182605839043e+02 
8 1 -1.366117806231e+02  -4.860614237085e+02  -8.606665889430e+01 
8
Step 15000
1 1 -2.887317850583e+02   2.996914539043e+02  -1.487474966575e+01 
2 1 -1.066028269523e+02  -8.388274020781e+01   4.001146703291e+02 
3 1  2.271647684491e+02   4.710653730500e+02   2.707947756432e+02 
4 1 -1.626640753307e+02  -4.744024928715e+02   1.371314499569e+01 
5 1 -3.061318633565e+02  -1.908321681143e+02  -4.057529222780e+02 
6 1  4.317614124908e+02  -5.866024585928e+02  -7.382545385378e+02 
7 1 -2.563747916024e+02   2.497662373778e+02   6.199591200712e+02 
8 1  3.171904516533e+02  -4.242863893962e+02  -7.251469920062e+01 
8
Step 16000
1 1 -9.076833470854e+01  -5.792623120544e+00   2.056921861877e+02 
2 1  3.358059653140e+02  -1.370804319489e+01  -4.099927743468e+02 
3 1 -2.691561792085e+02  -8.438960074816e+01   3.301117215364e+02 
4 1  2.042551374797e+02  -3.788374532468e+02   4.293263546249e+02 
5 1 -1.154899673935e+02  -1.652956725426e+02  -3.114281510785e+02 
6 1  2.135135330169e+02  -7.615855217765e+02  -8.436902594993e+02 
7 1  1.120253127848e+02   4.708081043480e+02   1.877328143466e+02 
8 1 -2.309421475937e+02  -2.379051732106e+02  -6.420918492964e+02 
8
Step 17000
1 1 -5.622917949076e+02   1.200682219564e+02  -5.410001427871e+02 
2 1 -8.747963843650e+01  -1.165996278305e+02  -2.052801688819e+02 
3 1 -7.213857577499e+00  -2.631611755725e+02   2.466185554653e+02 
4 1  3.408148524066e+02  -7.686972131611e+02   3.032968826942e+02 
5 1  3.864918704216e+01   1.721755909629e+02   2.475723099656e+02 
6 1  2.375967624598e+01  -1.667055936150e+02  -5.027119945911e+02 
7 1 -3.181282120720e+02  -1.429982700297e+02   7.053511830506e+02 
8 1  1.258964788109e+01   2.268048922317e+02  -5.070920957937e+02 
8
Step 18000
1 1  8.511472889587e+01   4.437048440176e+02  -2.873955799159e+02 
2 1 -3.470234911879e+02   3.038986208121e+02  -3.174620793642e+02 
3 1  2.523060665030e+02  -3.070801191516e+02   2.353024565243e+02 
4 1  1.960940233460e+02  -3.701221435772e+02   5.455291886447e+02 
5 1  6.580062595299e+02  -1.186692866822e+02  -3.349977411818e+02 
6 1 -4.320725867304e+02  -1.881793445935e+01  -5.739610155988e+02 
7 1  3.276953047311e+02  -3.799348897004e+02   1.568713878912e+02 
8 1  2.235433044612e+02  -2.696095932543e+02  -6.555834111437e+02 
8
Step 19000
1 1  6.611688080938e+01  -2.409521310484e+02  -4.272103015447e+02 
2 1  1.762817200425e+02   5.554860247331e+02  -1.862299260148e+02 
3 1  6.140294012016e+00   1.953535983231e+02   5.059251528557e+02 
4 1  1.641988484797e+02   8.377309783908e+01   5.462808666351e+02 
5 1  1.772792911227e+02  -9.276155966940e+01  -9.239672258239e+01 
6 1  5.018975489477e+01   3.684825417923e+01  -3.721564552448e+02 
7 1  5.500666328409e+02  -2.643923798218e+02  -1.198166762868e+02 
8 1  2.455025555814e+02  -2.313488759187e+02  -4.940962369963e+02 
8
Step 20000
1 1  5.168997851644e+02  -1.783764661984e+02  -5.788765936970e+02 
2 1 -3.026388920395e+02  -6.384666913478e+02  -3.905369146867e+02 
3 1  2.353950403618e+02  -2.828414744992e+02  -4.269751875647e+00 
4 1 -6.217434338485e+02   3.058988170135e+02   5.798588057179e+02 
5 1  6.528397224181e+02  -2.024983710863e+02  -4.229400904306e+02 
6 1 -3.927901235659e+02   1.407066608256e+02  -7.389205162203e+02 
7 1  2.195755667167e+02  -8.757327146455e+02   1.351255185788e+02 
8 1  2.454704562576e+02  -1.714450796706e+02  -2.963943377105e+02 
8
Step 21000
1 1 -1.081499924512e+02  -3.095382802278e+02  -1.808604215355e+01 
2 1  2.666244981075e+02  -5.538328551090e+02  -4.328838702475e+02 
3 1  2.759430064359e+02  -2.101417992583e+02   1.216426033109e+02 
4 1  7.777868359755e+01   3.002670187972e+02   8.164935412826e+02 
5 1  4.041025678930e+02  -4.342345103565e+01  -2.991711706216e+02 
6 1 -4.455062559988e+02   4.518322181588e+02  -4.103640825715e+02 
7 1  3.747445927023e+02   3.547789996707e+02  -2.095707432828e+02 
8 1 -1.494323942541e+02  -2.465877489181e+02  -3.120097596492e+02 
8
Step 22000
1 1  1.235018969555e+02  -7.173093212977e+01  -6.402363240489e+02 
2 1  2.122982015809e+02  -2.856277751240e+02  -3.961045901602e+02 
3 1  2.838399087591e+02   1.914614018312e+02   2.778692438228e+02 
4 1  1.658728683841e+02  -2.743130105411e+01   5.404955623028e+02 
5 1  2.149877070960e+02  -8.697025810165e+01   1.695229061740e+02 
6 1 -1.125041819090e+01  -8.067928694669e+01  -2.711260915728e+02 
7 1 -6.448153857179e+02   1.700400433436e+02  -5.333772711174e+02 
8 1  6.429983772715e+02  -6.500800514164e+02  -3.923379162955e+02 
8
Step 23000
1 1 -1.456545098758e+02   9.307881098143e+01   8.305504216002e+01 
2 1  3.131720203461e+02  -6.924704514583e+01  -7.458051760428e+02 
3 1 -9.186076793900e+01   1.154982649754e+02   1.230590677568e+02 
4 1  6.131117754164e+02   3.367604069367e+01   7.206486191623e+02 
5 1  4.055745194225e+02   8.572426561722e+02  -4.221990068839e+02 
6 1  2.785869790455e+02  -2.528709889434e+02  -2.453784798031e+02 
7 1  5.270981737819e+02  -1.758376018292e+02   1.649016033746e+02 
8 1 -2.896646530593e+02  -1.866328467685e+02  -4.172301248603e+02 
8
Step 24000
1 1  1.333015597869e+02  -5.287836443166e+02  -4.535441306866e+02 
2 1  6.011361353225e+02  -3.585150272028e+02  -1.309038761791e+02 
3 1 -5.499223113320e+02   6.198159620861e+02   2.143306563624e+02 
4 1  7.276405736374e+02  -9.904646036145e+01   3.370147531254e+02 
5 1 -9.700518386457e+01   8.753382293431e+02   5.102758095445e+01 
6 1  5.167064081380e+02  -3.302355866485e+02  -3.882005649324e+02 
7 1 -5.404567278153e+01   2.242596928035e+02   1.156764527271e+02 
8 1  2.225097337085e+02  -1.151768826339e+03  -8.624942813372e+02 
8
Step 25000
1 1 -7.743691718971e+01  -2.949956523279e+02  -2.262435760912e+02 
2 1  6.321736433039e+02  -8.548945374941e+02  -3.814729325182e+02 
3 1  2.710212637928e+01   1.544698332598e+02   3.483073494054e+01 
4 1  2.008624065805e+02   1.170692333930e+02   2.421823520173e+02 
5 1  3.927023954451e+02   7.253413799659e+02   9.025105108837e+01 
6 1  8.747327549388e+02  -2.310814802771e+02   1.046156908817e+02 
7 1 -6.693126159355e+02   3.129894040471e+02  -9.879632460349e+00 
8 1 -6.755755362027e+02   9.675315898770e+01  -4.446023577526e+02 
8
Step 26000
1 1 -7.160587252172e+01  -4.373212918084e+02  -3.129153526565e+02 
2 1  4.360702244757e+02  -5.133932078279e+02   8.570126893537e+01 
3 1  2.826418435706e+02   7.538552917967e+01   1.512116295148e+02 
4 1  2.426345824760e+02  -1.340857995971e+02   2.377807030971e+02 
5 1 -6.912388425240e+01   4.108897529350e+02  -2.416164495703e+02 
6 1 -2.511564546505e+02  -4.994701770396e+01  -4.480374824216e+02 
7 1  1.643509319867e+01   3.190462282128e+02   5.691234744236e+02 
8 1 -4.111383512272e+02  -4.647276280425e+02  -4.871239366469e+02 
8
Step 27000
1 1  4.069713859212e+02   2.814473281660e+02  -1.062840346758e+02 
2 1  2.293103555419e+02  -4.101834826420e+02   1.101084265130e+02 
3 1  2.618573846038e+01   1.878357501130e+02  -4.017329598690e+00 
4 1  4.118301386924e+02   7.086513936154e+02   3.007051965442e+02 
5 1  6.020081046429e+02   4.674932116929e+02   1.687452407234e+02 
6 1  3.484089436662e+02   3.076589868822e+01  -5.401026597674e+02 
7 1 -3.170056809871e+02  -4.058399048100e+00   7.169035906177e+01 
8 1  4.500400565720e+01   4.339022466184e+02   4.455155107791e+01 
8
Step 28000
1 1  1.008519541522e+02  -4.698276690986e+02  -6.757786329838e+02 
2 1  1.458331207718e+02  -2.632026573048e+02   1.974072127015e+02 
3 1  6.643677671314e+01   1.661742546687e+02  -1.401558028887e+02 
4 1  2.339189130455e+01   2.440233558306e+02   1.221558069407e+02 
5 1  1.829487863906e+02  -3.754895083297e+01  -4.638328107533e+02 
6 1  5.870695048000e+01   5.233945250080e+02   2.430186848864e+02 
7 1  2.869459723254e+02  -7.021211895672e+02   4.041629576062e+02 
8 1 -3.017879748759e+02   7.057413880434e+01   2.639963102017e+02 
8
Step 29000
1 1  2.916582878008e+02  -2.436414858705e+02   1.289599001199e+02 
2 1  2.876815624514e+02  -1.362221987158e+02   4.517831204215e+02 
3 1 -1.475270146902e+02  -3.535354507692e+02  -5.128915767961e+02 
4 1 -1.569457178705e+02   8.651943502359e+02   1.886927225332e+01 
5 1  7.658454240566e+02   2.169719053935e+02   3.154904947149e+02 
6 1 -1.029802186604e+02   3.053156384020e+02  -4.490117561579e+02 
7 1  3.028845876044e+01   1.932562070379e+02  -5.799685793317e+01 
8 1 -3.606271263472e+02  -4.649035771702e+01   2.232704766535e+02 
8
Step 30000
1 1 -4.891192753515e+01  -1.479148956219e+02   8.086684137829e+01 
2 1  6.153224830122e+02  -2.580754627753e+02   1.240601950573e+02 
3 1 -5.534035669027e+00   1.851805247427e+02  -1.510012420019e+02 
4 1 -2.501703213410e+02   1.109740072651e+02   2.045895851527e+02 
5 1 -3.817457583514e+02   2.932845783146e+02  -5.472774416581e+02 
6 1 -4.494658734022e+02  -8.305114108984e+01   3.539489076452e+02 
7 1  2.716409711762e+02  -7.342677208705e+02   2.129770940324e+02 
8 1 -3.275451675458e+02   4.296175457901e+02   4.439743329446e+02 
8
Step 31000
1 1  9.378073059278e+01   6.877821506568e+02   1.730748972342e+02 
2 1  2.680748628198e+02   1.196864383426e+02   2.560776307495e+02 
3 1 -4.269753876465e+02  -1.742890499873e+02  -5.918708818471e+02 
4 1  1.123586572776e+01   5.224243500843e+02  -3.516545599589e+01 
5 1 -3.822782107904e+00   2.654838506701e+02  -1.736671614700e+02 
6 1  9.961412302329e+00   1.353080704307e+02   2.842508330074e+02 
7 1  3.383977872736e+02   3.166162569456e+02   4.818939698499e+02 
8 1 -1.963878174964e+02  -5.672277616048e+02   2.321183914680e+02 
8
Step 32000
1 1 -2.012776329763e+02  -1.158584699555e+02   4.369050722989e+01 
2 1 -2.197376948706e+01   2.526214338235e+02  -7.792956966119e+00 
3 1 -2.594381376895e+02   4.528272328083e+02   6.880494446711e+01 
4 1  2.816659170324e+02   1.850345743958e+02   2.970627657711e+02 
5 1 -5.254110957220e+02   5.161242772325e+01  -1.057042459742e+02 
6 1 -4.081988811162e+01  -6.863007097498e+02   5.534706493791e+02 
7 1  2.390972353363e+02   8.076716181290e+02   2.543842587077e+02 
8 1  5.857050996705e+02  -3.434837615669e+02   3.662736142107e+01 
8
Step 33000
1 1  1.636334742160e+02   3.619967725143e+01   2.926306618022e+02 
2 1  2.293667822726e+02   5.167437689455e+01   1.158353515447e+02 
3 1 -2.026646398890e+02   1.534845369678e+02  -7.360998891716e+02 
4 1  1.984124863089e+02  -4.899059525726e+01  -2.560334638324e+02 
5 1 -5.052153155911e+02   7.539586733247e+02  -5.173378006123e+01 
6 1  5.287640283646e+01   3.894784841540e+02   1.880563793373e+02 
7 1  2.030216715910e+00   3.204347696198e+02   9.582984151524e+02 
8 1  1.862342424674e+02  -5.674746692218e+02   5.663536468890e+01 
8
Step 34000
1 1 -2.293295167479e+01  -2.660749774880e+02   1.777975520996e+02 
2 1 -9.595625595874e+01  -2.240491569010e+01   4.022348404536e+02 
3 1 -8.661680074112e+02   9.611739412843e+01  -1.452518038685e+02 
4 1  3.625028274585e+01   2.653093464849e+02  -2.317906404714e+02 
5 1 -5.038048586696e+02   6.248102734741e+02   3.840401056906e+02 
6 1 -3.012272142784e+02  -7.456371349890e+02   2.687505547461e+02 
7 1  1.034283396082e+02  -9.949795328455e+01   8.109036223179e+02 
8 1 -2.706086935738e+02  -4.349378287465e+02  -4.442098640559e+02 
8
Step 35000
1 1  4.764543934956e+02   4.496738972815e+02   2.468397452909e+02 
2 1  1.038636519434e+01   5.224978101995e+02   7.026371971884e+02 
3 1 -2.973259604184e+02   5.458261755165e+02  -2.866587740929e+02 
4 1 -1.242350803089e+01  -3.365796039956e+02  -4.681943704593e+02 
5 1 -2.989689667322e+02   1.569170147709e+02   7.381899492857e+01 
6 1  9.454610022770e+01   3.743055078665e+02   3.283784671978e+02 
7 1 -1.722057288066e+02  -9.488839399015e+01   4.483682843401e+02 
8 1 -2.769170493961e+02  -1.889550866211e+02  -2.096470829757e+02 
8
Step 36000
1 1  6.143977380701e+01   1.171300528909e+02  -2.928874724391e+02 
2 1 -6.140133092872e+02   7.708784493702e+02   2.166776904898e+02 
3 1 -2.682217662426e+02  -4.827032405279e+02  -4.900654663408e+02 
4 1 -3.761132245913e+02   3.967016952127e+02  -7.496519509472e+01 
5 1  3.604913694459e+02  -5.882783110436e+02   8.538179056232e+02 
6 1 -5.460195826863e+02   2.700783006776e+02   4.854773896727e+01 
7 1  3.804722829217e+02  -3.516681130855e+02   1.135209895055e+03 
8 1 -6.803479618021e+01   3.675633690705e+02   1.678529610608e+01 
8
Step 37000
1 1 -2.253160633778e+02  -4.219215034002e+01   2.151260469911e+01 
2 1 -1.558160063670e+02   2.885789511798e+02   4.245879748979e+02 
3 1  1.271103971421e+02  -6.158893717596e-01  -4.444474672803e+02 
4 1 -1.303415420752e+02   1.146201582739e+02  -2.660072137861e+02 
5 1  9.887732306574e+01  -6.981534622838e+02  -4.359931476852e+02 
6 1 -4.212703457538e+02   5.673165326747e+02   6.714543240660e+02 
7 1  7.165618786306e+02  -3.024588573121e+02   3.153588016285e+02 
8 1 -3.870477062398e+02   7.540878929116e+02   1.584491508690e+00 
8
Step 38000
1 1  1.656557845360e+01   1.578910682319e+02  -1.055870189487e+02 
2 1 -3.032269363382e+02  -2.834567751071e+01   5.686244364108e+02 
3 1 -5.024599818697e+02  -2.734758602293e+02  -4.160393529879e+02 
4 1 -8.578917991912e+02   3.701536989930e+02  -3.956150733337e+01 
5 1  3.588474424328e+02  -1.740439070045e+02   3.396924368631e+02 
6 1  3.052950023620e+02   1.224127963123e+02   5.606564199861e+02 
7 1 -1.668095337880e+02  -1.354141444745e+02   2.037429972503e+02 
8 1 -3.808172444874e+02  -8.986979397289e+01  -3.132602856571e+01 
8
Step 39000
1 1 -5.459891153141e+02   4.127078743471e+00   4.254319445618e+02 
2 1  2.550770428646e+02   1.516571184833e+01   4.896248720570e+02 
3 1 -3.088077331040e+02  -2.981193718469e+02  -5.085886812129e+02 
4 1 -2.263533013309e+02   4.115017505241e+02  -4.221947419406e+02 
5 1  3.167657713992e+02  -4.242914976366e+01  -5.951768899728e+02 
6 1 -5.610516370031e+02   1.105594250342e+02   3.658574842450e+02 
7 1  3.601497201332e+02  -4.686091030353e+01   2.761151915101e+02 
8 1 -8.068580699398e+02  -1.936336695086e+02   9.377990041932e+00 
8
Step 40000
1 1  9.650770249906e+01   5.801641329841e+02   6.042266658105e+01 
2 1 -4.797295915397e+02   9.582535896760e+01   5.009400454496e+02 
3 1 -2.442001003596e+02  -3.010425464400e+02  -3.657841736646e+02 
4 1 -3.397362490994e+02  -5.639745762057e+02   2.583493221013e+02 
5 1 -4.502736167473e+02   3.130933589363e+02   2.071836265908e+01 
6 1  3.556076166820e+02   1.084612871751e+02   2.118316648079e+02 
7 1 -6.206789871696e+01   5.276113586541e+02  -6.221940848566e+01 
8 1 -9.682098584646e+01  -3.250722851695e+02   2.906551379500e+02 
8
Step 41000
1 1 -3.862615340165e+02   1.835047779956e+01   2.144869368208e+02 
2 1  2.986118251495e+02   4.978000493996e+01   1.491602170635e+02 
3 1  2.961904342704e+02  -1.157758306165e+02  -5.285444983944e+02 
4 1  2.234796487708e+02  -3.567875586452e+02  -8.294773373667e+02 
5 1 -3.152352257674e+02   2.880760613978e+02   1.355403047925e+02 
6 1  1.384309055937e+02  -9.991276150286e+00   5.681527285318e+01 
7 1 -1.071006404695e+02   7.895426617431e+02   5.103080498254e+02 
8 1 -1.386133051474e+01  -1.273520343310e+02  -1.058548103928e+02 
8
Step 42000
1 1  1.425214772220e+02   2.167379985212e+02  -9.682109268406e+01 
2 1 -6.650623786999e+02  -1.491031803782e+02   2.920552218301e+02 
3 1 -5.328683182128e+02  -5.262381311289e+01  -4.634149375870e+02 
4 1 -1.868790680369e+02  -1.015061802211e+03  -2.857150462821e+02 
5 1 -4.341323375247e+02  -3.081685129814e+02   1.340039289619e+02 
6 1  1.432838087427e+02  -3.119087711613e+00   4.678394544069e+01 
7 1  3.300720858891e+02   5.745487682884e+02   4.341690047368e+02 
8 1 -1.314025868865e+02   1.082103548459e+02   6.237474305304e+01 
8
Step 43000
1 1  2.947130379354e+02  -2.471392174511e+02   1.665326313015e+02 
2 1 -2.098011452040e+02  -2.001103172243e+02   4.694408305767e+02 
3 1 -2.126875706862e+02   1.151883667246e+01   4.040320998800e+01 
4 1  4.710025888636e+02  -2.085281995951e+02  -2.853779392329e+02 
5 1 -6.843731302527e+02  -3.530233920765e+02   1.851695309545e+02 
6 1 -3.489726588400e+02  -5.469737496182e+02  -7.713325807653e+02 
7 1 -3.164066302089e+02   3.239219962379e+02   2.443917994727e+02 
8 1  1.781799402711e+02   6.122843063694e+02  -8.987137785500e+02 
8
Step 44000
1 1  1.321623160444e+02   1.220537651919e+02  -1.269321890255e+02 
2 1 -1.204751107141e+02   3.145566532919e+02   7.807265631642e+01 
3 1 -1.110273432488e+02  -1.382210616379e+02   1.131851851930e+02 
4 1  1.566897109385e+02   3.201643662284e+01  -3.389639487747e+02 
5 1  3.145868596816e+01  -4.307548532923e+02   4.090061883317e+02 
6 1 -4.478231288361e+02   2.158219936806e+02   4.583324850923e+02 
7 1  5.972430855373e+01  -3.483719224025e+02   1.396423242903e+02 
8 1 -4.352972818439e+02   4.220474015584e+02  -6.709344305450e+02 
8
Step 45000
1 1 -2.223996062720e+02  -1.141059656884e+02  -2.386959211373e+02 
2 1 -5.490999645042e+02   5.990638737952e+01   3.714588889294e+02 
3 1  7.377688814066e+02  -5.616712630067e+02  -3.601637736653e+02 
4 1  8.454824397272e+01  -1.748533589226e+02  -2.317572461388e+02 
5 1 -9.913295724884e+01  -9.332427405663e+02  -1.895864085066e+02 
6 1 -3.114174282501e+02   1.409048373502e+02   5.051513267303e+00 
7 1  1.190941697886e+02   6.999167863468e+01   8.486595600884e+01 
8 1  4.028538303221e+02   9.948069089952e+02  -6.123235611857e+02 
8
Step 46000
1 1  1.411013749821e+02   1.617530045883e+02  -2.793607529965e+02 
2 1  2.618439761346e+00   6.586695582897e+02   1.182949089813e+01 
3 1 -2.790847801790e+02  -6.594052204266e+02   1.537242142507e+01 
4 1 -2.108197563618e+00  -1.784516086628e+02   4.245278322463e+01 
5 1  5.895883533957e+02  -8.158598728799e+02   1.170600528681e+02 
6 1 -3.512342207405e+02   2.325718875356e+02   4.739316414403e+02 
7 1  5.586198731116e+02  -9.868059355893e+01   7.119699754524e+01 
8 1 -1.120818344114e+02   8.992371511675e+02  -9.222410842384e+02 
8
Step 47000
1 1 -9.120561909002e+01  -5.346716271507e+02  -2.178252234621e+02 
2 1 -2.677125279114e+02  -6.976786400361e+01  -9.565459973522e+01 
3 1  8.308837711307e+02  -6.268309481689e+02   9.250941994516e+00 
4 1 -5.410899364074e+02   3.448680878848e+02   9.922983752677e+01 
5 1  7.046351079875e+01  -6.406725238110e+02   1.603929833514e+02 
6 1 -2.870968169542e+02  -6.121332662006e+01  -2.271383850738e+02 
7 1  5.679778363972e+01  -2.867134812658e+02  -7.628336497009e+02 
8 1  5.820004907414e+00   3.909351977475e+02  -4.013411998533e+02 
8
Step 48000
1 1 -2.788796942445e+02  -1.360022292357e+02  -3.447711864715e+02 
2 1  4.917118652161e+02  -9.330880183065e+01  -1.191858863934e+02 
3 1 -2.783963853606e+02   9.839586835743e+01   1.115441928532e+03 
4 1 -3.077524690433e+02   4.840722490376e+02   1.208061519905e+02 
5 1  3.930234854771e+02  -2.223677927481e+02   2.261606995527e+01 
6 1  4.890354032937e+01  -3.347300416246e+02  -3.608677441398e+01 
7 1 -2.204224470932e+02  -2.852247471952e+02  -5.035459160761e+02 
8 1 -1.477704459532e+01   2.486438222074e+02  -7.728342107666e+02 
8
Step 49000
1 1 -4.574808432984e+01   9.141018125373e+01  -2.171022954827e+02 
2 1  2.372585730729e+02  -4.719559555742e+02   1.065617383331e+02 
3 1  4.688414597159e+02  -3.258452196185e+02   2.674289814559e+01 
4 1 -1.262472095855e+01   6.281273964769e+00  -3.018758166324e+02 
5 1  5.116897869128e+01   2.359007709683e+02   4.632084818485e+02 
6 1  3.902532201027e+02   7.741501568646e+01  -2.610324820004e+02 
7 1  1.292045142119e+02  -5.020613526355e+01  -3.345241582553e+02 
8 1 -9.049357431028e+01   1.104676513440e+02  -5.234029175101e+02 
8
Step 50000
1 1 -9.853222663238e+00  -6.671191015370e+01  -2.525238797912e+02 
2 1 -3.194017964800e+02  -2.358665180843e+02  -7.775242240917e+02 
3 1 -3.578025206562e+01   2.396230801119e+02   2.034531291148e+02 
4 1  5.086804546807e+02  -4.974674728793e+02   5.599271818219e+02 
5 1  1.000214694077e+02   6.307488164406e+02   2.271929241037e+02 
6 1  7.263776164548e+02  -9.489694230278e+01  -3.571155186574e+02 
7 1  7.045495386127e+01   4.538864441389e+02  -1.257947012859e+02 
8 1  2.203697533619e+02  -2.709699675301e+02  -1.169612355153e+02 
8
Step 51000
1 1  5.259540387194e+02  -2.099650541058e+02  -2.150644837935e+02 
2 1 -8.239573539802e-02  -6.280915722024e+02   8.770610479386e+01 
3 1 -6.698325397132e+02  -1.512940443554e+02   3.567565040747e+02 
4 1  3.264354405502e+02  -4.776398937493e+02   3.834245738086e+01 
5 1  3.022731357176e+02   2.660888113824e+01   5.684959792290e+02 
6 1  1.591939833564e+02   1.718445658655e+02  -1.081770049132e+03 
7 1 -1.472637725792e+01  -1.730110951990e+02  -5.667226006675e+02 
8 1  5.112183263896e+01  -1.854773683161e+01  -2.695810550480e+02 
8
Step 52000
1 1  2.508134819046e+02  -2.101509250719e+02   6.116400965740e+00 
2 1 -2.515037931500e+02   4.668873563791e+02   3.112550781364e+00 
3 1  3.027830370852e+02   2.675542266540e+02  -1.383654863184e+02 
4 1  4.802382903539e+02   5.212862158444e+02   2.177369565912e+02 
5 1 -1.699522368128e+02  -1.307745963087e+02   1.317379583952e+02 
6 1  1.342031337465e+02  -9.854806900209e+01  -9.502676029850e+02 
7 1 -1.279214527580e+02  -2.436080368065e+02   2.331294163088e+02 
8 1  2.559867768375e+02  -3.782802812481e+02   1.914430700901e+02 
8
Step 53000
1 1 -3.812721395113e+02  -2.061680697495e+02  -3.703759771109e+02 
2 1  1.294764440397e+02  -2.157561922220e+02  -4.433363532575e+01 
3 1 -3.978669678251e+02  -9.226462670176e+01   5.914465881484e+02 
4 1  1.220857107058e+02   2.098359623636e+02  -2.197919590898e+02 
5 1  4.432880552655e+02  -5.008008903785e+02  -3.356424515549e+02 
6 1  1.338657861168e+02  -2.482533590905e+00  -2.025430088715e+02 
7 1  2.876845756288e+02  -3.460221285799e+02   2.368198682976e+02 
8 1  1.261128271461e+02   7.865657767881e+01  -5.973018752714e+01 
8
Step 54000
1 1 -2.471416388702e+02   1.557021847011e+02  -1.933094821192e+02 
2 1 -4.496416391607e+02   7.841048775862e+02   1.984401044533e+02 
3 1  6.026571172560e+02  -3.470558364169e+02   3.052034808974e+02 
4 1  3.055493272765e+02   7.561780402722e+02   2.788506682104e+01 
5 1  9.379734142988e+02  -7.241192959559e+02   6.050973021235e+02 