8
Step 0
1 1 3.19820869991163702e-03 3.41430229895130916e-03 6.06176056291460926e-03
2 1 -5.88477925758947897e-03 -2.35054408411070666e-03 -3.01939445541998721e-03
3 1 1.01123629935507674e-02 2.38814220273260575e-02 -2.25503305257414507e-02
4 1 -1.03527108882924576e-03 1.47850251829289292e-02 -1.37288596132623467e-04
5 1 -1.62336003389495047e-02 8.03071343382081790e-03 8.88329397991377036e-03
6 1 -8.18445831474237488e-03 1.96385665094378284e-02 4.22580165976309090e-03
7 1 1.89355800675134883e-02 3.57747852263602065e-03 5.62154192682002250e-03
8 1 2.06792608962225559e-02 1.63307459377466241e-02 7.67680789688492560e-03
8
Step 10
1 1 6.28358625858088638e-04 5.72931728184587329e-03 4.18598005423674157e-03
2 1 -4.14129742574675507e-03 -4.16980640498357431e-03 -5.19521538819324794e-03
3 1 7.41026825963638728e-03 2.73780781458851860e-02 -1.92773269816050828e-02
4 1 1.69684193759990433e-03 1.25889094018525587e-02 3.73188371642934865e-03
5 1 -1.83399766068314818e-02 1.21854741328675364e-02 5.59479650238808683e-03
6 1 -8.03319181475519763e-03 1.86634835060231069e-02 4.90213192515544065e-04
7 1 1.45973180580103098e-02 6.15506565074717786e-03 2.79597936500371310e-03
8 1 1.98523923007675948e-02 1.40473796469112386e-02 5.30083896724237863e-03
8
Step 20
1 1 -2.08006844969428660e-03 8.18048291048211439e-03 2.23274170889634993e-03
2 1 -2.30085548491964663e-03 -6.06462605362494481e-03 -7.47475025273248214e-03
3 1 4.52416554877295082e-03 3.08842522689114045e-02 -1.56735848259495075e-02
4 1 4.60747092986728279e-03 1.00921602469799046e-02 7.89700713291045277e-03
5 1 -2.03953842528209507e-02 1.64041571578455100e-02 2.13093036705870468e-03
6 1 -7.85063557370886504e-03 1.74781248623924156e-02 -3.40965940594014976e-03
7 1 9.97238403660422046e-03 8.66944957348296345e-03 -2.61847647392873741e-04
8 1 1.87978969394789648e-02 1.15168988445186506e-02 2.69491602503572208e-03
8
Step 30
1 1 -4.76085154184580518e-03 1.06220948752844598e-02 3.26998425055743318e-04
2 1 -4.69599226479869812e-04 -7.92536422874884523e-03 -9.71865527851176712e-03
3 1 1.63498104366434967e-03 3.41523357108296163e-02 -1.19472584666765452e-02
4 1 7.52129475479397774e-03 7.43425436766136788e-03 1.20978202623684122e-02
5 1 -2.22604570889099046e-02 2.04029230212684314e-02 -1.28413206315685226e-03
6 1 -7.63216868465864656e-03 1.61283428599165411e-02 -7.22412664821841730e-03
7 1 5.34243887999352914e-03 1.09507722371017264e-02 -3.37286101978922495e-03
8 1 1.75611757116242440e-02 8.89068658856841283e-03 1.27673952598845538e-05
8
Step 40
1 1 -7.38195501304897243e-03 1.30280154532181718e-02 -1.50567523757724970e-03
2 1 1.33774029621881339e-03 -9.73799306033248935e-03 -1.19018590388811282e-02
3 1 -1.21695371949782677e-03 3.71235125047063783e-02 -8.14058240554826375e-03
4 1 1.04042935115599769e-02 4.64661143664928371e-03 1.62723467412603830e-02
5 1 -2.39116507622294805e-02 2.41218981079028665e-02 -4.59979779344476137e-03
6 1 -7.36580318296475595e-03 1.46146419075545448e-02 -1.09009805187016556e-02
7 1 7.63217469154316261e-04 1.29728065343835911e-02 -6.50251356548053362e-03
8 1 1.61504114712123642e-02 6.20501428749944354e-03 -2.71235976192828101e-03
8
Step 50
1 1 -9.91095993164778713e-03 1.53705945147194108e-02 -3.24037661675283511e-03
2 1 3.10626686206054263e-03 -1.14878263344774297e-02 -1.39991799162900547e-02
3 1 -3.99168153334226485e-03 3.97406706544531294e-02 -4.29725042650178600e-03
4 1 1.32214073069985196e-02 1.76277901414221899e-03 2.03570662258957327e-02
5 1 -2.53265393179924678e-02 2.75037840445268508e-02 -7.76726943361267467e-03
6 1 -7.04009903448466878e-03 1.29397052730112570e-02 -1.43891264376757172e-02
7 1 -3.70955461078881265e-03 1.47124982374460186e-02 -9.61482550623650109e-03
8 1 1.45751466385476008e-02 3.49715747717976866e-03 -5.44596364771910476e-03
8
Step 60
1 1 -1.23152131864242217e-02 1.76207688686755605e-02 -4.85308205570723298e-03
2 1 4.82075712977915027e-03 -1.31594079097642463e-02 -1.59853985627213466e-02
3 1 -6.64984315433883675e-03 4.19492156907671568e-02 -4.62440212277408648e-04
4 1 1.59365942095825025e-02 -1.18150009105257004e-03 2.42873629514142528e-02
5 1 -2.64840547198497422e-02 3.04943968040256690e-02 -1.07399235821373108e-02
6 1 -6.64455871888250133e-03 1.11088974896082875e-02 -1.76388835528003655e-02
7 1 -8.02018267274028432e-03 1.61501262847952159e-02 -1.26724200128759904e-02
8 1 1.28465406483169817e-02 8.05311968138017089e-04 -8.15228196985989112e-03
8
Step 70
1 1 -1.45621368281459249e-02 1.97483443015137247e-02 -6.32096250890083408e-03
2 1 6.46559535297284993e-03 -1.47365305270508069e-02 -1.78354614367348813e-02
3 1 -9.15303817048532774e-03 4.36981591929294921e-02 3.31732408961505840e-03
4 1 1.85130663955336387e-02 -4.14832522628711623e-03 2.79982445850464959e-02
5 1 -2.73649013589702880e-02 3.30434738195795052e-02 -1.34738430696135746e-02
6 1 -6.17004225673463847e-03 9.13076058035067195e-03 -2.06024973296670515e-02
7 1 -1.21133358494386108e-02 1.72696404747999625e-02 -1.56367383037841548e-02
8 1 1.09777229061580068e-02 -1.83163530422211849e-03 -1.07944268594074855e-02
8
Step 80
1 1 -1.66197256142472695e-02 2.17224859235223937e-02 -7.62281585302339391e-03
2 1 8.02482499860173587e-03 -1.62024015126605997e-02 -1.95248405593836383e-02
3 1 -1.14643512195088827e-02 4.49414712667034963e-02 6.99452970994823148e-03
4 1 2.09137426858324697e-02 -7.09784349387678620e-03 3.14253836219635443e-02
5 1 -2.79521343568327717e-02 3.51057551617154420e-02 -1.59285302089063018e-02
6 1 -5.60918764927319062e-03 7.01744797106810918e-03 -2.32348950954074235e-02
7 1 -1.59347488564904848e-02 1.80591643620635102e-02 -1.84684686184330045e-02
8 1 8.98418523889211312e-03 -4.37452903302550881e-03 -1.33347122650093273e-02
8
Step 90
1 1 -1.84572382112411990e-02 2.35124252479559336e-02 -8.73960790517897337e-03
2 1 9.48232727976770252e-03 -1.75399598854152072e-02 -2.10300566808875079e-02
3 1 -1.35490515178542919e-02 4.56396392836746143e-02 1.05212941486847594e-02
4 1 2.31019342131149018e-02 -9.98867308523890274e-03 3.45064923099310458e-02
5 1 -2.82318665058479065e-02 3.66422982087782137e-02 -1.80677949105049022e-02
6 1 -4.95681420697005343e-03 4.78503540979770357e-03 -2.54946797931133069e-02
7 1 -1.94322826829612071e-02 1.85116134430206303e-02 -2.11282053097964773e-02
8 1 6.88412645498678692e-03 -6.78457918852364526e-03 -1.57352029724449095e-02
8
Step 100
1 1 -2.00460613159597970e-02 2.50883657830123438e-02 -9.65509281446234012e-03
2 1 1.08221261395214097e-02 -1.87323363414675127e-02 -2.23293495933238363e-02
3 1 -1.53754514465744545e-02 4.57613356952877651e-02 1.38502581312620696e-02
4 1 2.50422528908243042e-02 -1.27785716298316563e-02 3.71829954845465452e-02
5 1 -2.81940460433930500e-02 3.76219382843402672e-02 -1.98607751784780628e-02
6 1 -4.21027999948457143e-03 2.45365039565527713e-03 -2.73453190251392482e-02
7 1 -2.25572802093783956e-02 1.86253497220761101e-02 -2.35773368266627252e-02
8 1 4.69865597039135878e-03 -9.02419228977882452e-03 -1.79584869562993930e-02
8
Step 110
1 1 -2.13606989875977822e-02 2.64225392449802497e-02 -1.03564637552824596e-02
2 1 1.20288067561675240e-02 -1.97634328790974659e-02 -2.34034550554692994e-02
3 1 -1.69158842472017547e-02 4.52850658335448089e-02 1.69357307320250026e-02
4 1 2.67017018117432989e-02 -1.54253478619257901e-02 3.94019183520040173e-02
5 1 -2.78332294231975266e-02 3.80227668541236880e-02 -2.12830119302214460e-02
6 1 -3.36976076093876715e-03 4.73711638353887211e-05 -2.87564505337733582e-02
7 1 -2.52661158318111916e-02 1.84047769751619836e-02 -2.57791379107495909e-02
8 1 2.45178208948802550e-03 -1.10579589721308963e-02 -1.99686448739375480e-02
8
Step 120
1 1 -2.23798152132156439e-02 2.74903380536787138e-02 -1.08349716813139988e-02
2 1 1.30880206130704647e-02 -2.06185837284875891e-02 -2.42364272749807687e-02
3 1 -1.81477350099726285e-02 4.42006458875621872e-02 1.97350281677701918e-02
4 1 2.80508766957787946e-02 -1.78879825195169782e-02 4.11178630816298116e-02
5 1 -2.71492633234484589e-02 3.78334714942493641e-02 -2.23174695977715228e-02
6 1 -2.43841697138896547e-03 -2.40613715970178395e-03 -2.97051969631613455e-02
7 1 -2.75218087653842682e-02 1.78607741825129659e-02 -2.77000111036984319e-02
8 1 1.70138328076331309e-04 -1.28537304936659786e-02 -2.17323660735904492e-02
8
Step 130
1 1 -2.30872395122392153e-02 2.82714302126788782e-02 -1.10864455060432372e-02
2 1 1.39870369217067192e-02 -2.12852462891961400e-02 -2.48164317971495234e-02
3 1 -1.90544377972420818e-02 4.25103571472251057e-02 2.22099157057915504e-02
4 1 2.90651820506358585e-02 -2.01278927833419864e-02 4.22949148132211114e-02
5 1 -2.61477914112637037e-02 3.70543764620539923e-02 -2.29553751997117785e-02
6 1 -1.42241967930701175e-03 -4.87625851924900541e-03 -3.01773652790621912e-02
7 1 -2.92955442783595296e-02 1.70108669061432433e-02 -2.93107896790932437e-02
8 1 -2.11757075843657140e-03 -1.43836982462475522e-02 -2.32201428832077561e-02
8
Step 140
1 1 -2.34728361292705356e-02 2.87507543231583576e-02 -1.11116523063208884e-02
2 1 1.47152903788361159e-02 -2.17536623062180509e-02 -2.51364269573784993e-02
3 1 -1.96263366916439412e-02 4.02296332208272114e-02 2.43280393384212035e-02
4 1 2.97259478359174489e-02 -2.21102481108875759e-02 4.29082996070632994e-02
5 1 -2.48405147818305423e-02 3.56980463965710856e-02 -2.31967551432678450e-02
6 1 -3.30815841043456975e-04 -7.33031352971136654e-03 -3.01683980618423810e-02
7 1 -3.05679379428038141e-02 1.58790552060336550e-02 -3.05879838075915900e-02
8 1 -4.38138870157113447e-03 -1.56253921651831641e-02 -2.44074614497519667e-02
8
Step 150
1 1 -2.35331396150731988e-02 2.89192986464008352e-02 -1.09164481331045799e-02
2 1 1.52648715173687981e-02 -2.20174268535124722e-02 -2.51946522404891404e-02
3 1 -1.98613012515146507e-02 3.73871542225485895e-02 2.60642202544293829e-02
4 1 3.00213258006466650e-02 -2.38052276070513449e-02 4.29456174984489264e-02
5 1 -2.32451558381227621e-02 3.37893619408799264e-02 -2.30505953506692889e-02
6 1 8.24768385418921091e-04 -9.73464330641718445e-03 -2.96839427246328273e-02
7 1 -3.13299041685880797e-02 1.44952629773026954e-02 -3.15148345341884142e-02
8 1 -6.59112685498601265e-03 -1.65625378779121098e-02 -2.52758849568295169e-02
8
Step 160
1 1 -2.32716747154607939e-02 2.87745837854612128e-02 -1.05116831536943029e-02
2 1 1.56309094553678841e-02 -2.20739046214096860e-02 -2.49948496258554191e-02
3 1 -1.97649953103884307e-02 3.40242510705764042e-02 2.74014776597688373e-02
4 1 2.99468548625319124e-02 -2.51891014162426465e-02 4.24074955943464227e-02
5 1 -2.13850961363368577e-02 3.13650173698671528e-02 -2.25346167622066419e-02
6 1 2.03056711956376822e-03 -1.20558022397596401e-02 -2.87399202640606713e-02
7 1 -3.15830461347063329e-02 1.28944371874432171e-02 -3.20820502339425814e-02
8 1 -8.71747270862069899e-03 -1.71857250563468011e-02 -2.58138931895122888e-02
8
Step 170
1 1 -2.26989053166281075e-02 2.83207856993447568e-02 -9.91284102719963006e-03
2 1 1.58118044540783431e-02 -2.19244366838606125e-02 -2.45461653582381943e-02
3 1 -1.93507309911698545e-02 3.01935850614493198e-02 2.83316492288833363e-02
4 1 2.95056145517530698e-02 -2.62450213569956035e-02 4.13075512328063416e-02
5 1 -1.92886823159975872e-02 2.84724149860226677e-02 -2.16746872577914911e-02
6 1 3.27122161971722192e-03 -1.42617542914905086e-02 -2.73620242670375123e-02
7 1 -3.13395300868440432e-02 1.11153701976802032e-02 -3.22881360682582830e-02
8 1 -1.07330628226725133e-02 -1.74928140113279028e-02 -2.60173400302443729e-02
8
Step 180
1 1 -2.18317935659614777e-02 2.75684599569632934e-02 -9.13941995854621221e-03
2 1 1.58092756914195963e-02 -2.15742890761809435e-02 -2.38627189240448040e-02
3 1 -1.86388918255777150e-02 2.59571629398821918e-02 2.88555064294285235e-02
4 1 2.87079300474537488e-02 -2.69634233944452024e-02 3.96716236073600195e-02
5 1 -1.69882310681055762e-02 2.51679743429448384e-02 -2.05038746872829476e-02
6 1 4.53038872660046794e-03 -1.63229632558197016e-02 -2.55846572960160591e-02
7 1 -3.06214290884594259e-02 9.19933291890545103e-03 -3.21392693461022977e-02
8 1 -1.26134184332378479e-02 -1.74889885194835192e-02 -2.58894458212550124e-02
8
Step 190
1 1 -2.06929944318661116e-02 2.65338697620907150e-02 -8.21410030488741935e-03
2 1 1.56282013950438912e-02 -2.10323168806330757e-02 -2.29628742757162600e-02
3 1 -1.76559664599485674e-02 2.13838478061512474e-02 2.89823190223358722e-02
4 1 2.75706453483737721e-02 -2.73419826716534212e-02 3.75363187015809868e-02
5 1 -1.45188092097057707e-02 2.15149597675550475e-02 -1.90611481964143431e-02
6 1 5.79135621802248299e-03 -1.82132726462364627e-02 -2.34493896222957993e-02
7 1 -2.94595543395873606e-02 7.18861720032007434e-03 -3.16487163252906212e-02
8 1 -1.43376645487218908e-02 -1.71864008754981264e-02 -2.54403216703382867e-02
8
Step 200
1 1 -1.93097585158438535e-02 2.52379754823871469e-02 -7.16177977610457477e-03
2 1 1.52762502975730581e-02 -2.03103596664288046e-02 -2.18682898616723194e-02
3 1 -1.64332884963028676e-02 1.65466082822750341e-02 2.87289019954215484e-02
4 1 2.61160374500315935e-02 -2.73851192692070693e-02 3.49470048701616062e-02
5 1 -1.19169017351000075e-02 1.75810261733861696e-02 -1.73897899253616754e-02
6 1 7.03760483831347445e-03 -1.99104889219003621e-02 -2.10030899021427103e-02
7 1 -2.78918548985491871e-02 5.12510296281679795e-03 -3.08358368182658008e-02
8 1 -1.58889703256899356e-02 -1.66034304321521359e-02 -2.46860886300259777e-02
8
Step 210
1 1 -1.77126581882516773e-02 2.37051981158959181e-02 -6.00858145363369033e-03
2 1 1.47633358670048696e-02 -1.94224384290133216e-02 -2.06028495531276230e-02
3 1 -1.50056195902482023e-02 1.15197988791283894e-02 2.81182630598550073e-02
4 1 2.43704958817988378e-02 -2.71031183608783123e-02 3.19554769369770411e-02
5 1 -9.21910083070232381e-03 1.34357458375607888e-02 -1.55356553246297803e-02
6 1 8.25326052809891540e-03 -2.13966181236338836e-02 -1.82959232399966393e-02
7 1 -2.59615382140903073e-02 3.04897339019993092e-03 -2.97247798977425953e-02
8 1 -1.72546754791525932e-02 -1.57636459793905476e-02 -2.36477022419972829e-02
8
Step 220
1 1 -1.59342784957677668e-02 2.19621081031916576e-02 -4.78094357135263638e-03
2 1 1.41009602302326724e-02 -1.83838705378712546e-02 -1.91915853640445902e-02
3 1 -1.34097308171220782e-02 6.37676747194865657e-03 2.71780343467698596e-02
4 1 2.23631274232956902e-02 -2.65109865804430481e-02 2.86175554250493389e-02
5 1 -6.46095080103199076e-03 9.14838285690264090e-03 -1.35454703398934020e-02
6 1 9.42339652445650482e-03 -2.26577579351751844e-02 -1.53794296074006766e-02
7 1 -2.37151146785723986e-02 9.97686183616319213e-04 -2.83430222023181265e-02
8 1 -1.84261097416888765e-02 -1.46946052206743082e-02 -2.23496268543201225e-02
8
Step 230
1 1 -1.40080159438800353e-02 2.00362012946541310e-02 -3.50487952625587592e-03
2 1 1.33015396438411586e-02 -1.72104361205652132e-02 -1.76596979490406501e-02
3 1 -1.16831256796395173e-02 1.18802810018530888e-03 2.59388949187348387e-02
4 1 2.01244550370697599e-02 -2.56272032668491204e-02 2.49908890016339001e-02
5 1 -3.67606370032867768e-03 4.78612638950086551e-03 -1.14653484727010625e-02
6 1 1.05341715090426346e-02 -2.36837035235183645e-02 -1.23048755218900276e-02
7 1 -2.12005805183342021e-02 -9.94730308607746656e-04 -2.67199235369532766e-02
8 1 -1.93981600204395609e-02 -1.34266379277959268e-02 -2.08185195612838811e-02
8
Step 240
1 1 -1.19671018955880785e-02 1.79549002789772885e-02 -2.20545720315033474e-03
2 1 1.23778061792987112e-02 -1.59177097397631313e-02 -1.60317633660216098e-02
3 1 -9.86301064040027292e-03 -3.97987501289022005e-03 2.44331673234781457e-02
4 1 1.76853575685137002e-02 -2.44725316155852170e-02 2.11331775766735973e-02
5 1 -8.95575196255210993e-04 4.12896839643219914e-04 -9.33965276675585709e-03
6 1 1.15728205692697816e-02 -2.44673714453447523e-02 -9.12201465857706041e-03
7 1 -1.84659196746992521e-02 -2.89804123364648374e-03 -2.48854632826485574e-02
8 1 -2.01686779356117230e-02 -1.19917443917487692e-02 -1.90820726945189617e-02
8
Step 250
1 1 -9.84391811475682568e-03 1.57448676825939424e-02 -9.06500832137319525e-04
2 1 1.13423594543543092e-02 -1.45206264251782069e-02 -1.43311836262172455e-02
3 1 -7.98556553004642344e-03 -9.06482289622910151e-03 2.26937162467154806e-02
4 1 1.50763455923686208e-02 -2.30690287035448076e-02 1.71009411871565695e-02
5 1 1.85205216115145663e-03 -3.91127165423300199e-03 -7.21024505910603658e-03
6 1 1.25275420563160118e-02 -2.50041689274045006e-02 -5.87831162803837109e-03
7 1 -1.55580356321739673e-02 -4.68586932013353042e-03 -2.28692771813705301e-02
8 1 -2.07378376380602907e-02 -1.04227023103630884e-02 -1.71681250951717240e-02
8
Step 260
1 1 -7.66961286798280815e-03 1.34316537406050582e-02 3.69520716614228596e-04
2 1 1.02074063894097445e-02 -1.30332994102237403e-02 -1.25798970525754211e-02
3 1 -6.08550882995474978e-03 -1.40090280006290504e-02 2.07532089032568950e-02
4 1 1.23272015713088417e-02 -2.14393419345418890e-02 1.29488501727654387e-02
5 1 4.54093193661648728e-03 -8.13036706597722141e-03 -5.11608824605354427e-03
6 1 1.33873384645686652e-02 -2.52914306765432452e-02 -2.61859857721300762e-03
7 1 -1.25221379644092721e-02 -6.33553961800071251e-03 -2.07000496093187741e-02
8 1 -2.11075468630897017e-02 -8.75242307197835433e-03 -1.51040947194310635e-02
8
Step 270
1 1 -5.47397271656089972e-03 1.10396411199576421e-02 1.60147953832353988e-03
2 1 8.98468845088092570e-03 -1.14690627197282114e-02 -1.07983217730982309e-02
3 1 -4.19590441333507740e-03 -1.87585970048306065e-02 1.86437301559857424e-02
4 1 9.46694711956346663e-03 -1.96063171488735193e-02 8.72953415362884289e-03
5 1 7.14745833237998875e-03 -1.21922133321382357e-02 -3.09311516542133246e-03
6 1 1.41418703635223658e-02 -2.53280158530402900e-02 6.14932562245996831e-04
7 1 -9.40152878728470025e-03 -7.82780432320324092e-03 -1.84052494533583424e-02
8 1 -2.12809875461479059e-02 -7.01354599549079347e-03 -1.29167241673724207e-02
8
Step 280
1 1 -3.28546989963164572e-03 8.59220885817259077e-03 2.76951553828261613e-03
2 1 7.68556485924552085e-03 -9.84068252751754864e-03 -9.00547309259111355e-03
3 1 -2.34812677361757741e-03 -2.32629749826417410e-02 1.63966921783574061e-02
4 1 6.52405212789465387e-03 -1.75928867833826490e-02 4.49372279784344009e-03
5 1 9.64992201205848270e-03 -1.60481444643729328e-02 -1.17425532231708982e-03
6 1 1.47813710528835861e-02 -2.51141145343139367e-02 3.78253537853930717e-03
7 1 -6.23767937958229733e-03 -9.14654250820509489e-03 -1.60111445941537450e-02
8 1 -2.12623254578104340e-02 -5.23821891846514443e-03 -1.06320817169454542e-02
8
Step 290
1 1 -1.13139280651766900e-03 6.11201946229459475e-03 3.85496472843898643e-03
2 1 6.32120209102291376e-03 -8.16066841203310842e-03 -7.21918006711410633e-03
3 1 -5.71894488200546812e-04 -2.74744671472457354e-02 1.40429464174166470e-02
4 1 3.52677732832784845e-03 -1.54221670179424085e-02 2.90548115908014046e-04
5 1 1.20281372202273393e-02 -1.96527044723710138e-02 6.10485143956601218e-04
6 1 1.52966509951719624e-02 -2.46512683909908201e-02 6.84664829729061432e-03
7 1 -3.07046452995026484e-03 -1.02785074474524146e-02 -1.35430000835294901e-02
8 1 -2.10565916184712251e-02 -3.45799244993183702e-03 -8.27573217242138538e-03
8
Step 300
1 1 9.62025218821937274e-04 3.62133622128188882e-03 4.84033349827640066e-03
2 1 4.90281496995045342e-03 -6.44161665452016360e-03 -5.45632850481709772e-03
3 1 1.10470681325327592e-03 -3.13479770833428040e-02 1.16129963281419012e-02
4 1 5.03542323476416386e-04 -1.31176752197834975e-02 -3.83214964926495037e-03
5 1 1.42631550813752082e-02 -2.29634953804048435e-02 2.23397239858213678e-03
6 1 1.56792008976720382e-02 -2.39425741438654555e-02 9.77168211563040831e-03
7 1 6.15712642670130278e-05 -1.12131636370801924e-02 -1.10253590799963292e-02
8 1 -2.06697095278393118e-02 -1.70375319273535276e-03 -5.87298499353822081e-03
8
Step 310
1 1 2.96954275568281790e-03 1.14229480913031643e-03 5.70934454128045957e-03
2 1 3.44190960174695602e-03 -4.69652797054649542e-03 -3.73307175997787547e-03
3 1 2.65526778343083865e-03 -3.48410339095297714e-02 9.13721878750462478e-03
4 1 -2.51677176245645789e-03 -1.07035808222411526e-02 -7.82763596874401502e-03
5 1 1.63371076402809359e-02 -2.59412417758323154e-02 3.67197420086868469e-03
6 1 1.59213849385747980e-02 -2.29930153869028625e-02 1.25239336976666789e-02
7 1 3.12101523272512865e-03 -1.19426250156232389e-02 -8.48231785965853670e-03
8 1 -2.01086250406668013e-02 -5.63326109294534703e-06 -3.44913655572025432e-03
8
Step 320
1 1 4.86695103262384764e-03 -1.30292329279441295e-03 6.44706210509758421e-03
2 1 1.95048906764647080e-03 -2.93905683649005062e-03 -2.06497035594451405e-03
3 1 4.05519415816663238e-03 -3.79141199061038339e-02 6.64602316888730955e-03
4 1 -5.50465041321582856e-03 -8.20491786373306678e-03 -1.16502967272922708e-02
5 1 1.82331994261095871e-02 -2.85500894083174639e-02 4.90329067831255915e-03
6 1 1.60167032790438785e-02 -2.18098585654518187e-02 1.50716644292211779e-02
7 1 6.07151953421506893e-03 -1.24616807774220444e-02 -5.93772871701478064e-03
8 1 -1.93814897640208622e-02 1.60714734293330975e-03 -1.02964168351955539e-03
8
Step 330
1 1 6.63123177238351524e-03 -3.69204413797055448e-03 7.04008936586237970e-03
2 1 4.41195421800505080e-04 -1.18366516732602584e-03 -4.67041176077955130e-04
3 1 5.28194547969214941e-03 -4.05312626286657013e-02 4.16990270264747543e-03
4 1 -8.42994286420607579e-03 -5.64770881856064937e-03 -1.52558938202785824e-02
5 1 1.99358418987066292e-02 -3.07581155071222807e-02 5.90998295041460318e-03
6 1 1.59600959778218553e-02 -2.04030494793276014e-02 1.73853471076877222e-02
7 1 8.87789474301475812e-03 -1.27678776751669176e-02 -3.41529016119289245e-03
8 1 -1.84978515408768182e-02 3.10652823422706082e-03 1.35982929842176289e-03
8
Step 340
1 1 8.24082488232020204e-03 -6.00278922375457533e-03 7.47681993572192876e-03
2 1 -1.07262625885389527e-03 5.54332756976808213e-04 1.04628646177058380e-03
3 1 6.31535849314380539e-03 -4.26608234363448705e-02 1.73935776729237349e-03
4 1 -1.12620411966606777e-02 -3.05897129786800604e-03 -1.86020663147590699e-02
5 1 2.14309109935199200e-02 -3.25380019913584506e-02 6.67767820012454306e-03
6 1 1.57482578851559155e-02 -1.87855540462477343e-02 1.94380580688177824e-02
7 1 1.15063617433108813e-02 -1.28616178713968788e-02 -9.38507864216027400e-04
8 1 -1.74688135202476988e-02 4.46594974515435346e-03 3.69347099716191372e-03
8
Step 350
1 1 9.67598368775942838e-03 -8.21308946693988413e-03 7.74771880098399420e-03
2 1 -2.57694532285507446e-03 2.25883552454840151e-03 2.46129818151134870e-03
3 1 7.13802632954705502e-03 -4.42763963874189329e-02 -6.15308027625669071e-04
4 1 -1.39702322341028126e-02 -4.66597960834267745e-04 -2.16490508209447631e-02
5 1 2.27060964803455743e-02 -3.38678068128806728e-02 7.19591832934685094e-03
6 1 1.53799348194994523e-02 -1.69735981844957723e-02 2.12059732246246101e-02
7 1 1.39249381421403130e-02 -1.27462292924331710e-02 1.46946983313209949e-03
8 1 -1.63071336012354622e-02 5.66077475853677802e-03 5.94556407995487472e-03
8
Step 360
1 1 1.09191857276185328e-02 -1.03014049123627670e-02 7.84560490103144818e-03
2 1 -4.05713903721609780e-03 3.91312229253061757e-03 3.76518743388274627e-03
3 1 7.73569702342154046e-03 -4.53577253054203017e-02 -2.86430274704343795e-03
4 1 -1.65241948565987631e-02 2.10088588241284313e-03 -2.43605669910231179e-02
5 1 2.37513010775541496e-02 -3.47317573879992875e-02 7.45851331870896715e-03
6 1 1.48561742466317027e-02 -1.49867745296817650e-02 2.26689164567813219e-02
7 1 1.61039238353957795e-02 -1.24279730188515992e-02 3.78612233647369640e-03
8 1 -1.50272473680604923e-02 6.66876493239180242e-03 8.09082167671617246e-03
8
Step 370
1 1 1.19555621262003621e-02 -1.22471218835716079e-02 7.76590752618026153e-03
2 1 -5.49814920582807239e-03 5.50010853993578800e-03 4.94629110734452499e-03
3 1 8.09765288516887602e-03 -4.58915504671649419e-02 -4.97874767970744956e-03
4 1 -1.88946018242110089e-02 4.61467252435189199e-03 -2.67047911212192624e-02
5 1 2.45590367788888660e-02 -3.51209788773846898e-02 7.46385898109811277e-03
6 1 1.41805080826225647e-02 -1.28479970957412846e-02 2.38109051718560331e-02
7 1 1.80164497873620683e-02 -1.19159720546770029e-02 5.98990375934486518e-03
8 1 -1.36452100116730823e-02 7.47057721412559394e-03 1.01048298544690555e-02
8
Step 380
1 1 1.27733075176079767e-02 -1.40309945726481127e-02 7.50687122066954690e-03
2 1 -6.88468299697551130e-03 7.00267085520489985e-03 5.99434303777005104e-03
3 1 8.21703455785756029e-03 -4.58723077586574088e-02 -6.93113950165086083e-03
4 1 -2.10537772931017921e-02 7.04610839354078734e-03 -2.86553265685244966e-02
5 1 2.51247599006391327e-02 -3.50340624414701915e-02 7.21517950680592574e-03
6 1 1.33590507772618251e-02 -1.05832982160120673e-02 2.46206395813265977e-02
7 1 1.96390590323784371e-02 -1.12220736367052501e-02 8.06063465823966992e-03
8 1 -1.21785645880881106e-02 8.05024710530248717e-03 1.19645411766097776e-02
8
Step 390
1 1 1.33640348689200682e-02 -1.56355961821458035e-02 7.06968847950439731e-03
2 1 -8.20143496360413449e-03 8.40401910296310721e-03 6.90072092840809947e-03
3 1 8.09107859887042008e-03 -4.53026194250397141e-02 -8.69584726204190861e-03
4 1 -2.29763592685999878e-02 9.36718976400306540e-03 -3.01920782776717231e-02
5 1 2.54470925018660428e-02 -3.44773879215772572e-02 6.72065533882254106e-03
6 1 1.24005023035372135e-02 -8.22147465117183465e-03 2.50918884728460363e-02
7 1 2.09522874502817147e-02 -1.03606755722942603e-02 9.97991108314076440e-03
8 1 -1.06461500419996729e-02 8.39563116817463456e-03 1.36487788792269884e-02
8
Step 400
1 1 1.37230448607120210e-02 -1.70457454879506393e-02 6.45854579296878482e-03
2 1 -9.43330660604494407e-03 9.68809345288357097e-03 7.65866478615365946e-03
3 1 7.72124483007285024e-03 -4.41935339359665197e-02 -1.02496160809681536e-02
4 1 -2.46399195979796343e-02 1.15510861335456107e-02 -3.13019515269315554e-02
5 1 2.55278988431518403e-02 -3.34651514461908606e-02 5.99339892363528765e-03
6 1 1.13160528132876751e-02 -5.79360111924050701e-03 2.52237341010811411e-02
7 1 2.19411973599459680e-02 -9.34853762673994865e-03 1.17315092045798264e-02
8 1 -9.06785908522568518e-03 8.49878472176951970e-03 1.51387149534454746e-02
8
Step 410
1 1 1.38494872220146555e-02 -1.82488780136021850e-02 5.68057604959221456e-03
2 1 -1.05656058963594871e-02 1.08399640381151990e-02 8.26344987846720433e-03
3 1 7.11322164929364519e-03 -4.25644922304798945e-02 -1.15720470184364002e-02
4 1 -2.60255010604647403e-02 1.35726573947248519e-02 -3.19793173774569339e-02
5 1 2.53722128802546555e-02 -3.20190993855139494e-02 5.05125194093820114e-03
6 1 1.01191930777401809e-02 -3.33243904121578293e-03 2.50206515300323805e-02
7 1 2.25958013884320942e-02 -8.20456841063823931e-03 1.33017649467933301e-02
8 1 -7.46434878416294290e-03 8.35624838872491699e-03 1.64182940819018533e-02
8
Step 420
1 1 1.37464008660762721e-02 -1.92353367601697106e-02 4.74571841804453769e-03
2 1 -1.15842248408685906e-02 1.18462110285917788e-02 8.71250407827469341e-03
3 1 6.27681493866381196e-03 -4.04430187743884811e-02 -1.26460265637467345e-02
4 1 -2.71180400580103287e-02 1.54089322213956589e-02 -3.22262110887007597e-02
5 1 2.49880349322313053e-02 -3.01680101973656398e-02 3.91640008490874020e-03
6 1 8.82544180927565328e-03 -8.71775217614153566e-04 2.44924122798024779e-02
7 1 2.29113174199375332e-02 -6.94955544336043566e-03 1.46799043281680697e-02
8 1 -5.85670543499383460e-03 7.96921571459623460e-03 1.74745828557572799e-02
8
Step 430
1 1 1.34206298867772002e-02 -1.99985652436017840e-02 3.66649489860359926e-03
2 1 -1.24758140760366197e-02 1.26952615123601502e-02 9.00546664376607013e-03
3 1 5.22574281736108530e-03 -3.78641564111245887e-02 -1.34580886539853884e-02
4 1 -2.79066539483811826e-02 1.70395203343029801e-02 -3.20522514922174304e-02
5 1 2.43860299808291228e-02 -2.79469814619634528e-02 2.61482867831545505e-03
6 1 7.45200684723044526e-03 1.55427130615405249e-03 2.36538171661979796e-02
7 1 2.28882223780660435e-02 -5.60580913510016349e-03 1.58582961490209007e-02
8 1 -4.26607235039149889e-03 7.34356039892280089e-03 1.82980287040005289e-02
8
Step 440
1 1 1.28826224271978880e-02 -2.05351947039780977e-02 2.45771973796127209e-03
2 1 -1.32279833463494444e-02 1.33776587255824385e-02 9.14419021467607375e-03
3 1 3.97736239274165682e-03 -3.48696811048634092e-02 -1.39986978540251432e-02
4 1 -2.83847842190183136e-02 1.84469387392420421e-02 -3.14742918714562767e-02
5 1 2.35791681470700863e-02 -2.53965758358228114e-02 1.17566461088953935e-03
6 1 6.01740128043605667e-03 3.91193624371746849e-03 2.25242772445743561e-02
7 1 2.25321092913659989e-02 -4.19671448944241958e-03 1.68325993836612106e-02
8 1 -2.71325883649626599e-03 6.48971496412756744e-03 1.88826163364263916e-02
8
Step 450
1 1 1.21461282069627637e-02 -2.08450267098144147e-02 1.13616254515566304e-03
2 1 -1.38295405104162019e-02 1.38862442106256964e-02 9.13268896786436149e-03
3 1 2.55234275178556867e-03 -3.15071461190521776e-02 -1.42624403543031679e-02
4 1 -2.85501994648673235e-02 1.96168398402478579e-02 -3.05158373654773572e-02
5 1 2.25823467225525765e-02 -2.25618690387290981e-02 -3.69540269486133511e-04
6 1 4.54103736022419460e-03 6.16845714898340679e-03 2.11272731952377307e-02
7 1 2.18533806699463748e-02 -2.74621203176486379e-03 1.76017869083924250e-02
8 1 -1.21835500903206867e-03 5.42240783615996307e-03 1.92259136337853791e-02
8
Step 460
1 1 1.12278172372604450e-02 -2.09309209177226813e-02 -2.79812565122395599e-04
2 1 -1.42707497186481212e-02 1.42162467497655397e-02 8.97703614189834104e-03
3 1 9.74285988789509554e-04 -2.78288150086352243e-02 -1.42481075390859958e-02
4 1 -2.84048735938772293e-02 2.05381372541305583e-02 -2.92062847757020884e-02
5 1 2.14120208602743764e-02 -1.94914365156749619e-02 -1.98753456327068227e-03
6 1 3.04282038055248699e-03 8.29265419550430372e-03 1.94897309858795553e-02
7 1 2.08668228362119054e-02 -1.27824877966968738e-03 1.81680444198187921e-02
8 1 1.99622013260159783e-04 4.16027899542069021e-03 1.93290067297488093e-02
8
Step 470
1 1 1.01468460665063483e-02 -2.07986046168483381e-02 -1.77061077865904256e-03
2 1 -1.45435706729264459e-02 1.43652876679848957e-02 8.68521680863279175e-03
3 1 -7.30698434322781193e-04 -2.38905460055482619e-02 -1.39586632383013626e-02