8
Step 0
1 1  1.209540805984e+02  -2.886120426082e+01   1.097647033467e+02 
2 1  1.222969370770e+02  -1.494361152744e+02  -6.734320369445e+00 
3 1  3.802152348792e+01   1.704974183462e+01   8.516243480055e+01 
4 1  7.746992841251e+01  -1.169485503485e+02   8.289288025438e+01 
5 1 -1.058759357599e+02   2.367497675416e+01  -6.729734880145e+01 
6 1  1.860005769930e+02   1.552452802514e+02  -1.907198717604e+02 
7 1  4.136292618700e+01   4.649073000009e+01  -1.088527950851e+02 
8 1  5.247673768650e+01   7.559759822992e+01  -1.115179430064e+01 
8
Step 1000
1 1  8.878555517946e+01   1.358433551769e+02  -1.345924580041e+02 
2 1  4.952682303128e+01  -1.699789597342e+02   1.828824866229e+02 
3 1  2.390911858738e+02  -2.596723496290e+02   3.074923347504e+02 
4 1  2.108534754052e+02  -2.205788197587e+02  -1.573907504431e+02 
5 1  1.707919404719e+02  -2.485978378767e+02   1.537101380185e+02 
6 1 -1.275433017617e+02   3.324592708146e+02   1.048189836884e+02 
7 1  2.183601026661e+02  -2.199674759793e+02  -2.545921737113e+02 
8 1 -2.130946764573e+02   7.216844176577e+01  -6.632949025517e+01 
8
Step 2000
1 1  8.896766461735e+01   4.967082383418e+00  -2.490597645924e+02 
2 1  4.819560940467e+01  -1.098598144910e+02   5.499563173638e+01 
3 1  3.372518703953e+01  -2.588789581833e+02   7.060644733263e+01 
4 1  6.798798721989e+01  -1.012394081416e+02  -1.432570702708e+02 
5 1  3.021481944712e+02  -2.562657407777e+02   3.994246115288e+01 
6 1 -1.144888056716e+02   1.377062078384e+02   1.826081160625e+02 
7 1  6.521085506431e+01   1.298931254372e+01  -4.549674569385e+01 
8 1 -2.326026330645e+02   9.796234883449e+01  -1.912940462690e+01 
8
Step 3000
1 1 -7.853649169559e+00  -1.180685178006e+02  -5.263657305745e+01 
2 1  6.445594900780e+01  -1.252198393643e+01  -1.297505117634e+02 
3 1 -1.111806679651e+02  -6.205695309795e+01  -2.083679187326e+02 
4 1  1.044955782290e+00   3.581815456576e+01   1.324872316901e+02 
5 1  1.463443774196e+02   6.020726425885e+01  -4.930122151884e+01 
6 1  5.990886698557e+01  -1.276540330857e+02  -6.239893997212e+00 
7 1 -1.976255240747e+02   1.516293064582e+02   1.314378909605e+02 
8 1 -8.003484852837e+01  -1.236384209697e+02   3.054925034378e+01 
8
Step 4000
1 1 -1.545392667671e+02  -1.979289960587e+01   1.744019458962e+02 
2 1 -3.235747785576e+01   9.195893184479e+01  -1.011300060338e+02 
3 1  1.294469978590e+01   1.246181595082e+02  -1.540073364962e+02 
4 1  6.040462880641e+01   3.430645070924e+01   2.153608001545e+02 
5 1 -1.639176941954e+02   2.892723570331e+02   6.412872642990e+01 
6 1  8.039714339545e+01  -2.276047892673e+02  -1.182354541650e+02 
7 1 -2.083258582086e+02  -5.410579110828e+01   9.019043290478e+01 
8 1  1.041417241622e+02  -3.057583676659e+02   1.011808836623e+01 
8
Step 5000
1 1 -1.347575438737e+02   9.347404134098e+01   1.167840669254e+02 
2 1 -1.761815345494e+02   1.176351032024e+02   1.685412228815e+01 
3 1  9.563076829298e+01   1.967686458241e+02   6.725565481939e+01 
4 1 -2.094766881688e+01   2.809692225474e+01  -9.044503691969e+01 
5 1 -2.959832604040e+02   1.252325957511e+02   1.102843834335e+02 
6 1 -5.460559590734e+01  -9.519530408193e+01  -7.771582912050e+00 
7 1  4.208773264028e+01  -2.143293303376e+02  -2.478796553019e+00 
8 1  1.653471428405e+02  -4.557862998627e+01   4.192372174104e+00 
8
Step 6000
1 1  4.536189743101e+01   1.601747096673e+01  -3.220926340072e+01 
2 1 -1.331849807607e+02   5.316207729111e+01   3.415920137743e+01 
3 1 -8.049984523327e+01   1.723686512395e+02   1.054841249406e+02 
4 1 -2.447388046267e+02   1.676262771335e+02  -2.633301075993e+02 
5 1 -1.057720531416e+02  -1.654119693824e+02  -8.847371520015e+01 
6 1 -1.047894364489e+02   9.953385658102e+01   7.063720158830e+01 
7 1  2.065209146144e+02  -6.258291690265e+01  -1.779089877957e+00 
8 1  7.691678175272e+01   3.130109093926e+02   6.053976349331e+01 
8
Step 7000
1 1  1.073104922834e+02  -3.573564016612e+01   1.738377713714e+01 
2 1  9.595786758909e+01  -1.145399773350e+01   5.067851258342e+01 
3 1 -1.789697213315e+02   3.517127285212e+01   1.839477932779e+01 
4 1 -1.878152812345e+02   1.782046105703e+02   3.921547887367e+01 
5 1  1.106144645820e+02  -1.648235565179e+02  -2.041309176553e+02 
6 1 -1.235464083386e+01   1.529801270771e+02  -2.552377047497e+01 
7 1  1.280956387216e+02   1.156902040987e+02  -2.735722435436e+01 
8 1 -2.855002206443e+01   1.821148907402e+02   3.751356431500e+01 
8
Step 8000
1 1  1.205423197434e+01   6.526969563593e+01   3.414502723048e+01 
2 1  2.030843368772e+02  -4.953542100421e+01   1.009468710252e+02 
3 1 -7.270245665611e+00  -1.708716496841e+02  -6.241629801144e+00 
4 1  1.548566931001e+02  -1.188165374712e+02   2.561651941700e+02 
5 1  1.229382349398e+02   3.765462412915e+01  -2.845786218874e+01 
6 1  7.021177276266e+01   7.122642108952e+01  -6.723544578431e+01 
7 1 -2.010170794832e+01   1.430438197281e+02  -9.260585520989e+01 
8 1 -8.048049579436e+01  -1.437596698160e+02  -8.201644618906e+01 
8
Step 9000
1 1 -1.902821676713e+01   8.714812470006e+01  -1.398339936959e+02 
2 1  3.852990759757e+01  -8.327102259072e+01   3.673503222511e+01 
3 1  1.878642522809e+02  -2.483715735183e+02   1.583209541486e+01 
4 1  3.402434139972e+02  -3.864146262465e+02  -1.430050584983e+01 
5 1  4.103594204920e+01   1.585615638230e+02   2.118913986128e+02 
6 1  8.355678884068e+01  -4.530928497736e+01   2.574382073989e+01 
7 1 -1.173266364063e+02   1.151752269776e+02  -5.052495316124e+01 
8 1 -8.959533153798e+01  -1.395654291339e+02  -1.223262813379e+02 
8
Step 10000
1 1  8.574499664881e+01  -1.178568048077e+02  -1.790062633193e+02 
2 1 -1.882047734501e+02  -7.596778995487e+01  -1.542046135851e+02 
3 1  1.745184291807e+02  -5.765643971900e+01   2.391578039809e+01 
4 1  9.182895998027e+01  -1.720704263068e+02  -3.346474236375e+02 
5 1  4.525460712322e+01   5.531901363253e+01   2.062757870623e+02 
6 1  4.651700751569e+01  -1.095559802249e+02   6.832042820189e+01 
7 1 -1.443851317726e+02  -1.182636579310e+01   9.682226259479e+01 
8 1 -2.719939797536e+01   9.518987010296e+01   1.404022881834e+01 
8
Step 11000
1 1  4.833330176579e+01  -2.163542385586e+02   1.280488143746e+02 
2 1 -1.012539487738e+02   1.282175277147e+01  -2.003256974087e+02 
3 1  2.851002779709e+01   1.491709019340e+02  -3.253034363635e+01 
4 1 -2.112452272526e+02   2.962967005912e+02  -2.218359671848e+01 
5 1  7.215115664811e+01  -1.443424111465e+02  -6.129248217386e+01 
6 1 -3.397702804455e+01  -6.148498788430e+01  -1.409328404489e+01 
7 1 -7.223175754590e+01  -2.482445421272e+02   1.101431995309e+02 
8 1  8.786357562197e+01   2.434279772131e+01   1.259544531948e+02 
8
Step 12000
1 1 -1.555150878576e+02  -7.845825220713e+00   2.090465603697e+02 
2 1  9.991676260008e+01   8.138873241380e+01  -2.399553818932e+01 
3 1 -6.961893832618e+01   1.136610172958e+02  -1.265376378507e+02 
4 1 -1.299813175522e+02   2.850464005139e+02   3.004807138028e+02 
5 1 -7.364763036451e+01  -1.380015954502e+02  -1.949246820013e+02 
6 1 -1.034526094317e+02   7.455663818969e+00   6.770101365315e+00 
7 1  6.214858942562e+01  -2.506362144644e+02  -6.067346364994e+00 
8 1  9.956438038378e+01  -1.533617089301e+02   6.421001720817e+01 
8
Step 13000
1 1 -1.492063716322e+02   1.386420566158e+02  -3.151905780223e+01 
2 1  6.782561574790e+01   6.684817009995e+01   1.431674928763e+02 
3 1 -1.659990044696e+02   8.167272959782e+01  -9.611438989003e+01 
4 1 -8.889848311282e+00   1.119602038163e+01   4.708171660694e+01 
5 1 -2.206049472463e+02   2.055842654118e+01  -1.147575481629e+02 
6 1 -8.512905974753e+01   5.886544034147e+00   7.577342963772e+01 
7 1  1.629000640878e+02   2.460405288844e+01  -3.533059638063e+01 
8 1  8.407748157624e+00  -1.091315392484e+01   3.442392140007e+00 
8
Step 14000
1 1  9.611563360214e+01   8.019845405798e+01  -1.451974111844e+02 
2 1 -8.360741741823e+01   3.419352919767e+00   1.743270151317e+02 
3 1 -1.793846226364e+02   1.125249440143e+02   1.363378612588e+02 
4 1 -5.160702044236e+01  -1.134562250754e+02  -2.984213899256e+02 
5 1 -1.135676436906e+02   1.436209249961e+02   6.133821459045e+01 
6 1  2.595409623888e+01  -3.132447820903e+01  -2.278838759319e+01 
7 1  1.268752894798e+02   2.585275284676e+02   3.018442820639e+00 
8 1 -7.182147338212e+01   1.787768941167e+02  -1.609519069477e+01 
8
Step 15000
1 1  2.121719273652e+02   8.033187638025e-01   3.857670726023e+01 
2 1 -1.113841843821e+02  -2.970381409186e+01   4.599954420588e+00 
3 1  5.299145008224e+01  -2.554819589632e+01   3.006532488693e+02 
4 1 -8.358132469441e+01  -6.750576774656e+01  -1.391057871930e+02 
5 1  1.982124032992e+02   1.010278612472e+02   1.951817202052e+02 
6 1  1.161028274296e+02   1.967761224041e+01  -2.082400161452e+02 
7 1 -8.754245515062e+01   1.893945478422e+02  -5.201968902526e+00 
8 1 -5.126649413616e+01   5.517340826603e+01  -6.919457366100e+01 
8
Step 16000
1 1 -4.278361111954e+00   3.433614695730e+01   1.041539643639e+02 
2 1  1.736876343153e+01   2.432704665834e+00  -1.886028170910e+02 
3 1  2.993275192197e+02  -3.126223422432e+02   2.290712281688e+01 
4 1  9.031340671176e+01  -6.927610855828e+01   2.675510159706e+02 
5 1  2.698043401683e+02  -4.176114841796e+01   1.011126707386e+02 
6 1  7.353493161726e+01   1.709674855081e+02  -9.200014462485e+01 
7 1 -2.500328997210e+02  -9.691049902393e+00  -5.379108971261e+01 
8 1  1.483199316263e+01  -1.123818076224e+02  -1.064524657141e+02 
8
Step 17000
1 1 -1.171286066109e+02  -3.601388266645e+01  -1.036680642167e+02 
2 1  9.981988803892e+01  -1.138311422596e+01  -1.197337751605e+02 
3 1  1.810711127500e+02  -2.713963748473e+02  -3.268783924748e+02 
4 1  2.639468047183e+02  -9.274585646645e+01   2.269414643149e+02 
5 1  2.584792343498e+01  -9.956277860165e+01  -1.230997057884e+02 
6 1  5.502158034854e+00   1.494565468982e+02   2.342951764957e+02 
7 1 -1.322338023739e+02  -8.484647916059e+01  -4.457860225475e+01 
8 1  1.083218890102e+01   3.996047229652e+01   2.125723431545e+00 
8
Step 18000
1 1  3.000542616053e+01  -1.888126164788e+02  -1.222919297123e+02 
2 1  8.217694407203e+01  -9.874075062510e+01   6.913081601773e+01 
3 1 -9.601818355375e+01   1.313695685393e+02  -1.901775436963e+02 
4 1  1.639183593294e+02   1.723126000159e+01  -7.503756652931e+01 
5 1 -1.098495354968e+02  -5.688287453799e+01  -1.493638215167e+02 
6 1 -1.649227007480e+01  -1.114322821365e+02   2.278580919741e+02 
7 1  9.841921482095e+01  -1.376221913382e+02   6.866467519664e+00 
8 1 -1.931653030427e+01   1.093085846942e+02   1.260465644093e+02 
8
Step 19000
1 1  5.113558188699e+01  -1.186771944878e+02   9.667878897557e+01 
2 1  3.577076896374e+01  -9.613287507567e+01   3.944814243155e+01 
3 1 -1.428975325183e+02   3.473332065591e+02   1.537645997232e+02 
4 1 -1.167175733497e+02   1.305808745282e+02  -1.712091062644e+02 
5 1 -3.976953200272e+01  -1.003011073249e+01   4.372989348073e+01 
6 1 -7.910981736511e+01  -2.674651012687e+02  -1.099592101014e+02 
7 1  1.800556834897e+02  -1.636406321712e+02   7.118174432403e+01 
8 1  1.966374006764e+01  -1.467167504723e+02   7.871805339306e+01 
8
Step 20000
1 1 -1.161874533298e+02   1.350756160626e+02   1.407195312699e+02 
2 1 -3.842668679007e+01   6.557202699846e+01  -1.038540436559e+02 
3 1 -1.451109557847e+01   1.192715777197e+02   1.762833340571e+02 
4 1 -2.936747337603e+02   8.980534924939e+01  -9.063064519309e+01 
5 1 -2.332262373431e+01   1.453224320670e+01   1.418835574311e+02 
6 1 -1.261040401325e+02  -1.075125367453e+02  -2.656894124716e+02 
7 1  9.618181708000e+01   3.335415284814e+00   1.306569243325e+02 
8 1  8.127419372261e+01  -2.654707618374e+02  -5.623165551535e+01 
8
Step 21000
1 1 -8.094211852433e+01   1.832367768656e+02  -5.133800610867e+01 
2 1 -1.288416286300e+02   1.989570455490e+02   4.405098150630e+01 
3 1 -2.196395893173e+01  -1.613672157869e+02  -2.954677621159e+01 
4 1 -1.856309761732e+02  -1.279630080713e+01  -1.994896434691e+01 
5 1 -1.289174854532e+02   4.112479040475e+01  -1.970417274335e+01 
6 1  1.084669147979e+01   1.079909332812e+02  -2.556200261669e+01 
7 1 -1.568265309333e+01   1.887276296121e+02   5.844000381319e+01 
8 1  4.576674529276e+01   4.119601510897e+01  -6.283496625194e+01 
8
Step 22000
1 1  1.527989281677e+02   2.121449089654e+01  -9.505314474196e+01 
2 1 -1.361127934524e+02   1.167617806322e+02   2.905409753139e+02 
3 1 -1.222386948393e+02  -1.315568678890e+02  -2.232491495927e+01 
4 1  7.360549811960e+01  -4.679755357506e+01   8.384170192989e+01 
5 1 -9.643789922358e+01   6.799217955647e+01  -1.484754255482e+02 
6 1  2.036005996835e+02   1.405390502564e+02   1.767520145858e+02 
7 1 -1.106547458447e+02   1.029878831790e+02  -1.812768778113e+02 
8 1 -7.266086399856e+01   2.939270395010e+02   1.566525924541e+01 
8
Step 23000
1 1  1.230625465939e+02  -2.768068824297e+01   4.228470280049e+01 
2 1  3.635714539173e+00  -9.704835441731e+01   7.067505613149e+01 
3 1 -1.276089353106e+01  -2.435319752005e+00   6.282472258714e+01 
4 1  2.233307072429e+02  -6.501082669848e+01   1.829463295542e+02 
5 1  1.261525036618e+02   3.749310549867e+01  -2.501556249245e+01 
6 1  1.258943291272e+02   1.179645756207e+02   7.309781828430e+01 
7 1 -1.556560028044e+02  -6.691267144959e+01  -2.540558048883e+02 
8 1 -1.128568866997e+02   1.436164010221e+02   1.069173380740e+01 
8
Step 24000
1 1 -1.248418381732e+02   1.762044120247e+01   7.768307304212e+01 
2 1  1.578470850332e+02  -1.774930980417e+02  -3.340789230108e+02 
3 1  1.825434255301e+02   4.446250879762e+00  -1.396575489918e+01 
4 1  1.222438216646e+02  -6.220649278695e+01   7.258606237506e+01 
5 1  2.280288471942e+02  -3.675326798571e+01   1.380374464062e+02 
6 1 -1.435640566089e+02   8.787045151082e+01  -8.835517405900e+01 
7 1 -4.300294921721e+01  -1.452804883222e+01   3.818794649612e+01 
8 1 -2.510915928349e+01  -8.995359966241e+01  -4.686497197300e+01 
8
Step 25000
1 1 -1.200313226918e+02  -7.544726609133e+01  -1.987709226672e+01 
2 1  1.636745344335e+02  -6.968375014534e+01  -2.316179023522e+02 
3 1  1.587731401813e+02  -1.677089692012e+01  -8.498810214855e+01 
4 1 -1.978910406750e+01   1.537132870286e+01  -1.319809376394e+02 
5 1  9.104510425259e+01  -6.584987612581e+01   1.047543036031e+02 
6 1 -1.954064838644e+02  -5.417715325528e+01  -6.641703435933e+01 
7 1  1.298486933581e+02   9.164043115104e+01   2.788632632519e+02 
8 1  4.302614524261e+01  -9.615409391248e+01  -3.886304716550e+01 
8
Step 26000
1 1  1.166459835472e+02  -2.106483927860e+02  -8.648168087776e+01 
2 1  1.792130809097e+01   6.010317445096e+01   2.295022506142e+02 
3 1 -4.522054169675e+01   6.163139281123e+01  -2.709270821643e+01 
4 1 -2.998477189247e+01   1.136761692309e+02  -1.767109736915e+02 
5 1 -1.311593491481e+02  -3.139473474704e+01  -5.384624681774e+01 
6 1  3.553592657923e+01  -2.771990131302e+02   3.911360090192e+01 
7 1  1.585581016079e+02  -5.450886672691e+01   1.192345676905e+02 
8 1  5.351120092331e+01  -7.617225081733e+01   5.197032881569e+01 
8
Step 27000
1 1  1.497973371949e+02  -3.626663793112e+01  -5.674406101519e+01 
2 1 -1.881527103846e+02   1.161257480353e+02   3.282613181941e+02 
3 1 -1.853870454526e+02   1.173670201726e+02   2.172660318187e+01 
4 1 -4.358325727956e+01   7.404485082546e+01  -1.349217938075e+01 
5 1 -2.774038498335e+02   2.448141554974e+01  -1.612718566066e+02 
6 1  2.368462268334e+02  -2.301488245046e+02   7.929508806913e+01 
7 1 -2.544161490650e+01  -2.613169143171e+02  -2.241818936588e+02 
8 1  9.207164568113e+01  -1.313859513182e+02   1.333357443577e+02 
8
Step 28000
1 1 -8.414455918436e+01   2.738767329034e+02   4.207656886325e+01 
2 1 -1.896939720493e+02   5.997653926831e+01  -9.675886163903e+01 
3 1 -9.024955579897e+01  -1.045850735952e+01   4.427798917452e+00 
4 1 -1.473654361214e+02  -8.437749083423e+01   1.280682808634e+02 
5 1 -1.281013936694e+02   2.380603252112e+01  -8.704411792717e+01 
6 1  1.066896271657e+02   1.673928834745e+02   2.745107433486e+01 
7 1 -1.555949100662e+02  -1.003886945438e+02  -1.889107914272e+02 
8 1  9.163586070053e+01  -2.124808592927e+01   5.817773464210e+01 
8
Step 29000
1 1 -1.208150266940e+02   2.007468495583e+02   1.107166123893e+02 
2 1 -3.679641932797e-01  -8.647002641715e+00  -2.127309159504e+02 
3 1  1.437709779754e+01  -1.219162123633e+02   7.043274652950e+01 
4 1 -1.452191724595e+02  -1.011691426337e+02   8.580788112549e+01 
5 1  1.620868913953e+02  -1.990030442272e+01   5.347869832654e+01 
6 1 -1.256107825034e+02   2.987414155502e+02  -5.777097860813e+01 
7 1 -2.436524558377e+01   1.548835585625e+02   9.359279138479e+01 
8 1 -7.201522033427e+01   1.895394117068e+02  -1.134989319272e+02 
8
Step 30000
1 1  1.943754119467e+01  -6.258520904228e+01   6.546085127051e+01 
2 1  1.000935274710e+02  -1.370920415408e+01   7.706931572390e+01 
3 1 -2.290149845218e+01  -5.673520418147e+01   1.358581567200e+02 
4 1  6.427519818560e+01   1.256278666324e+01   1.601662261919e+01 
5 1  2.657903550130e+02   1.234736880724e+01   1.270578785843e+02 
6 1 -1.737689283754e+02   6.577937871858e+01  -1.155483230089e+02 
7 1  9.537348764881e+01   1.659282914956e+02   1.006602800437e+02 
8 1 -2.557664772460e+02   1.943002504083e+02  -1.823319926333e+02 
8
Step 31000
1 1  3.900683376142e+01  -1.807360897834e+02  -9.830883996295e+01 
2 1  8.697708361243e+01  -3.075496663450e+01   1.755801926627e+02 
3 1 -2.433674173180e-01   8.043837043511e+01  -4.986734691149e+01 
4 1  3.266721107733e+02   7.742087349737e+01  -1.518488525539e+01 
5 1  3.802480986054e+01   1.121098264371e+02   9.931675413093e+01 
6 1 -2.434486465308e+01  -1.597419380594e+02  -2.912039715273e+01 
7 1 -9.606157661501e+00   8.734199792448e+01  -1.061992845982e+02 
8 1 -1.397760247203e+02  -6.022282714756e+01  -8.849735104802e+00 
8
Step 32000
1 1 -5.318311219837e+01  -8.477040463183e+01  -1.420727217405e+02 
2 1  5.475925636479e+01  -9.760762377762e+01  -1.188167720306e+02 
3 1  1.874313824491e+02   9.310043726348e+01  -2.922270691687e+02 
4 1  2.351804046230e+02   1.206588959624e+01  -2.693357884573e+01 
5 1 -2.972595436689e+02   7.439005141391e+01  -4.972080881390e+01 
6 1  1.859232818428e+02  -9.941394826111e+01   1.833003835874e+02 
7 1 -1.877146594669e+02   5.801327705050e+01  -1.077032082988e+02 
8 1  2.804397502531e+02  -2.343726750323e+02   2.405228334319e+02 
8
Step 33000
1 1  3.221714353815e+01  -3.863304309957e+01   3.074625096034e+01 
2 1  1.516808491169e+01  -6.837679252379e+01  -2.001796439024e+02 
3 1  2.315208152453e+02  -6.901295408662e-01  -1.001734965410e+02 
4 1 -1.673901715827e+02  -1.637586266857e+00  -5.479702479454e+01 
5 1 -2.117031064718e+02  -1.268766383824e+02  -1.660703010280e+02 
6 1  1.810809499220e+02   1.211340861656e+01   1.763551084425e+02 
7 1 -7.750002742597e+01  -9.636870985214e+01   1.178684385545e+02 
8 1  3.558636415111e+02  -8.617088522864e+01   1.572798152271e+02 
8
Step 34000
1 1  1.588428450166e+02  -5.453240253045e+01   5.448991873615e+01 
2 1 -7.166293556207e+01   8.491330592342e+01   6.187614618766e+01 
3 1 -2.550584855690e+01  -2.611723644846e+01   1.787772783111e+02 
4 1 -2.905760319121e+02   7.153096568574e+01  -9.521236598649e+01 
5 1  1.121167623309e+02  -1.622002671809e+02  -9.240634353214e+01 
6 1 -3.369122163651e+01  -5.996050032512e+01  -6.502612629009e+01 
7 1  1.940976022233e+02  -3.307971867638e+02   1.318074217752e+02 
8 1  1.287409773749e+00   2.056220722754e+01  -7.591330539893e+01 
8
Step 35000
1 1  4.387906829435e+01   9.184671476909e+01  -6.375662624736e+01 
2 1 -1.077255466741e+02   1.448674297175e+02   1.349349435776e+02 
3 1 -2.720950666294e+02  -2.902435982653e+01   1.059766404896e+02 
4 1 -1.115933543940e+02   1.003368055608e+00  -5.125753950756e+01 
5 1  1.747708041586e+02   8.330592684167e-02   6.006394799793e+01 
6 1 -1.775457998657e+02  -6.017021324009e+01  -1.748414068460e+02 
7 1  2.524333846003e+02  -2.475620168999e+02  -2.358944513846e+01 
8 1 -2.014513019760e+02  -1.933936827602e+01  -9.456571617721e+01 
8
Step 36000
1 1 -1.718171537129e+02   2.239402943596e+02  -2.145982451329e+01 
2 1  1.259194900471e+01  -9.853374563623e+00  -2.600791213481e+01 
3 1 -2.132455988946e+02  -3.610957135785e+01  -9.532608481193e+01 
4 1  1.278761049841e+02  -1.739203624078e+02   1.112768243621e+02 
5 1 -2.778158077694e+01   1.361317694173e+02   1.108580417838e+02 
6 1 -6.370440115695e+01   6.703559612095e+01  -3.831817487364e+01 
7 1 -2.509331218179e+01   2.194354203647e+02  -1.092131517060e+02 
8 1 -1.002360593451e+02   4.434050358513e+00   1.927290029473e+01 
8
Step 37000
1 1 -1.610615074868e+02   8.146010012790e+01   1.424908360506e+02 
2 1  9.876353617268e+01  -1.449570553934e+02  -7.272366883481e+01 
3 1  3.965624280732e+01   1.330194912948e+01  -3.768585807750e+01 
4 1  1.633703696686e+02  -1.306723589490e+02   1.931803105518e+02 
5 1 -1.377891002244e+02   7.501186135020e+01   1.185745380341e+00 
6 1  1.531671952892e+02   7.745644290123e+01   8.979454464693e+01 
7 1 -3.110518168488e+02   4.307502957067e+02  -7.434074086034e+01 
8 1  2.089607833796e+01   8.752014925042e+01  -8.428553495961e+00 
8
Step 38000
1 1  1.659544697936e+01  -1.496485661617e+02   6.937855826520e+01 
2 1 -2.756241361333e+01  -3.353890185939e+01   4.273244183955e+01 
3 1  1.740408885392e+02   6.001170784045e+01   1.035058316502e+02 
4 1  4.571986411798e+01   1.406551557248e+02   3.779637022571e+01 
5 1  1.560997705454e+00  -2.810903227356e+01  -4.088930740468e+01 
6 1  1.070131489790e+02   6.048623682784e+00   3.152175484186e+01 
7 1 -2.297749830526e+02   1.203748099797e+02  -2.704295376268e+01 
8 1 -3.646832733833e+01   9.262321059129e+01  -1.044163801582e+02 
8
Step 39000
1 1  1.109439830290e+02  -2.030086607063e+02  -1.690128487268e+02 
2 1 -1.236026081413e+02   1.149172854634e+02   4.673933163335e+01 
3 1  2.186629643135e+02  -6.672896183383e+00  -1.394065490800e+01 
4 1 -2.269889297293e+01   2.620420864012e+02  -1.896482686728e+02 
5 1  1.152734195330e+02  -3.331713731853e+01   6.590145697620e+01 
6 1 -1.493237979665e+02   7.705015779551e+01  -9.482526939329e+00 
7 1  1.075351333276e+02  -1.968108435524e+02   4.248091698786e+01 
8 1 -2.951811637958e+01   3.311270264234e+01   2.614524784217e+01 
8
Step 40000
1 1  1.002592331385e+02  -5.579723275235e+01  -1.643472574748e+02 
2 1  6.825683667520e+01   4.430971333340e+01  -8.325231565155e+01 
3 1  1.463845205625e+02  -9.164203849099e+01  -2.168655980225e+02 
4 1 -5.944841493338e+01   1.049588677892e+01  -2.189307249995e+02 
5 1  1.644090071097e+01  -1.341786011046e+01   7.347422480410e+01 
6 1 -2.329848771154e+02   1.211081413568e+02   6.252040040747e+01 
7 1  3.762860281084e+02  -2.474390842280e+02   1.403302812738e+02 
8 1  1.711764525727e+02  -6.644866121543e+01   2.781940331030e+02 
8
Step 41000
1 1  3.171782407224e+01   1.313507401351e+02   1.327912448423e+02 
2 1  2.669116068338e+02  -1.374721844967e+02  -1.007515034343e+02 
3 1 -1.794267324488e+02   4.048413675898e+01  -6.136071671370e+01 
4 1 -6.763944868108e+01  -2.822610195820e+02   5.009545511038e+01 
5 1 -1.270629768089e+02   5.253620637849e+00  -1.550363316913e+02 
6 1  9.660376347186e+01  -1.443707976988e+02   5.354198201802e+01 
7 1  1.579514764153e+02  -8.733624118003e+01   8.715280291021e+01 
8 1  2.001904258122e+02  -1.441903857593e+02   1.166638131076e+02 
8
Step 42000
1 1  7.389059237866e+00   1.590660937403e+02   1.237181106660e+02 
2 1  7.901812933719e+01  -7.257095386568e+01  -3.006364560627e+00 
3 1 -3.921709032611e+02   1.503324998051e+02   1.656486199228e+02 
4 1 -1.129272534488e+01  -1.769408624005e+02   1.634562018903e+02 
5 1 -6.039005353191e+01   4.101427105789e+01  -2.101830772873e+02 
6 1  3.003663742145e+02  -3.423602222585e+02  -7.076487526090e+01 
7 1 -1.298717682019e+02  -3.097289457031e+01  -1.764819059770e+01 
8 1 -1.627517161931e+01  -1.478262207362e+02  -2.230328202427e+02 
8
Step 43000
1 1 -3.084840159637e+01   9.382616580386e+01  -9.514956044986e+01 
2 1 -2.114177124381e+02   1.144355614403e+02   5.831619261912e+01 
3 1 -1.730542358853e+02  -7.069713772020e+01   8.103780812051e+01 
4 1  4.412267032513e+01   3.184014579302e+01   4.165470144611e+01 
5 1  6.730093425549e+01  -3.812187319957e+00   8.342645522040e+01 
6 1  7.070661993299e+01  -8.453440464342e+01  -1.111275146877e+02 
7 1 -9.498574176118e+01   4.047000707487e+01  -5.041340411687e+01 
8 1 -1.366516388940e+02  -3.524733310790e+01  -1.668469227596e+02 
8
Step 44000
1 1 -9.271249698720e+01  -2.578302741413e+01  -4.787685974445e+01 
2 1 -2.173083921111e+02   1.155482066871e+02   8.100701974678e+01 
3 1  2.553555607818e+02  -2.613286198593e+02  -7.305974904284e+01 
4 1 -2.698876218458e-01   1.068780469818e+02  -3.219015477292e+01 
5 1  8.262058079214e+01  -1.262211914315e+02   2.706479672935e+02 
6 1 -2.111517321865e+02   2.903743893749e+02  -2.292115330527e+01 
7 1 -1.158345826754e+00   1.636313324615e+02  -9.989219726303e+01 
8 1 -9.887814748368e+01   1.375102614553e+02   8.891913791192e+01 
8
Step 45000
1 1 -1.047632591247e+02  -1.180682655534e+02   1.296629236325e+02 
2 1 -1.999958045908e+01  -3.350066442751e+01   4.726459425925e+01 
3 1  3.217550839774e+02  -2.938604939536e+01  -1.716204126421e+01 
4 1 -6.355758906731e+01   1.022676796869e+02   2.833172192091e+01 
5 1  1.923709783713e+01  -1.059542664355e+02   5.024272957732e+01 
6 1 -1.466674141462e+02   2.543455259404e+02   6.466693035580e+01 
7 1 -9.142142264980e+01   1.266452649392e+02  -1.476626293008e+02 
8 1 -5.812897878704e+01   1.823807052162e+02   7.494101473385e+01 
8
Step 46000
1 1 -2.219607020766e+01  -1.122423622197e+02   4.426231363435e+01 
2 1  1.290168918799e+02  -1.215436632825e+02  -5.941254565836e+01 
3 1 -2.006025270652e+00   3.077736222670e+02   7.616171897124e+01 
4 1  2.540102761856e+01   5.209082971235e+01   3.459557229693e+01 
5 1 -5.111271985018e+01   1.447866037316e+02  -2.041480379499e+02 
6 1  6.760928462139e+01  -4.241154171212e+01   9.757948025601e+01 
7 1 -1.520413662626e+02  -2.488437675628e+01  -5.153270502329e+00 
8 1 -1.311208603753e+01   7.639863140247e+01  -7.312185532727e+01 
8
Step 47000
1 1  1.172390022177e+02  -2.424000468597e+01  -1.622042861899e+02 
2 1  1.930646286074e+02  -7.364615890649e+01  -1.133564093484e+02 
3 1 -2.269595472216e+02   2.035651942122e+02  -2.825523248112e+01 
4 1  1.769161861859e+02  -8.737245186051e+01  -1.003871485634e+02 
5 1 -1.145731060000e+02   3.237370288171e+02  -9.305354208290e+01 
6 1  5.507989778666e+01  -1.575159443457e+02   5.417646143339e+01 
7 1  8.695224409767e+01  -7.651795091026e+01   2.822485566236e+02 
8 1  1.230217607183e+02  -6.589541341487e+01   2.724666468478e+01 
8
Step 48000
1 1  1.796632338732e+02   8.766369292896e+01  -7.705398251911e+01 
2 1  1.451409532016e+02   6.473442063388e+01  -4.979040764144e+00 
3 1 -1.066368420511e+02  -2.319210658692e+02  -1.627144972793e+02 
4 1  6.093796968829e+01  -1.429941998753e+02  -1.617395394061e+02 
5 1 -7.255008852463e+01   5.886688069099e+01   1.501217127204e+02 
6 1 -8.956408586215e+01  -6.826412531593e+01  -9.888478439180e+01 
7 1  3.648168041845e+02  -5.406796019621e+01   2.752205148728e+02 
8 1  1.870036463842e+02  -1.736989967837e+02   1.957807694236e+02 
8
Step 49000
1 1  8.382996013171e+01   1.217837501402e+02   1.109602014965e+02 
2 1 -5.997948489639e+01   1.365729052173e+02   6.479471946633e+01 
3 1  3.941573663920e+01  -2.605272144095e+02  -4.436270401731e+01 
4 1 -2.217060765912e+02   4.996095922739e+01   1.240265893818e+01 
5 1  1.074361504352e+02  -3.169865811166e+02   3.125251471879e+01 
6 1  3.058180804852e+01  -5.206341803401e+01  -1.355777350461e+02 
7 1  1.646214709012e+02  -1.061706025559e+02  -9.523392143544e+01 
8 1  2.854005744844e+01  -1.703185496601e+02   2.351607098332e+01 
8
Step 50000
1 1 -4.132332713884e+01   8.159896008661e+01   2.123203751444e+01 
2 1 -2.469549267468e+02   5.135657841407e+01  -1.458406432448e+01 
3 1  1.857489296094e+01   1.700586311573e+01   1.218747463872e+02 
4 1 -1.916624484870e+02   1.257041896842e+02   1.682665307101e+02 
5 1  1.836696331312e+02  -2.841220915342e+02  -1.625564479400e+02 
6 1  2.443325122675e+02  -7.654795450148e+01   5.229735093301e+01 
7 1 -2.053962967592e+02  -1.159039811017e+02  -2.626551666888e+02 
8 1 -8.401965151550e+01  -5.290224485756e+01  -1.770951430372e+02 
8
Step 51000
1 1 -1.312525358507e+02  -2.131053339934e+01  -8.844356892652e+01 
2 1 -1.684095775776e+02  -1.012738035202e+02  -3.084897859973e+01 
3 1  1.681035019260e+01   1.333816529590e+02   1.036799359343e+02 
4 1  1.222489897987e+02  -8.245427885139e+01   1.000154319853e+02 
5 1  9.235957739359e+00   4.995891558244e+01  -3.337793530100e+01 
6 1  1.109131146258e+02   3.097294993265e+01   1.587500768208e+02 
7 1 -2.617975921032e+02   5.727620933903e+01  -1.119244611052e+02 
8 1 -5.597441432223e+01   1.274711081772e+02  -9.216665769539e+01 
8
Step 52000
1 1 -1.440551885239e+02  -1.024380406947e+02   1.845188375306e+01 
2 1  1.119574397723e+02  -1.091449384800e+02   7.076016486341e+01 
3 1  2.352179477621e+01   6.067770954750e+01  -2.705950837453e+01 
4 1  2.503941485117e+02  -2.039482866564e+02  -8.855008613174e+01 
5 1 -1.721582799099e+02   2.394513749317e+02   2.023441113921e+02 
6 1 -2.301877223046e+02   1.111985318502e+02  -4.005671673319e+01 
7 1  6.432508709609e+00   1.818217949589e+02   5.132183291780e+01 
8 1 -4.633980140467e+01   1.657681422097e+02   5.780174721873e+01 
8
Step 53000
1 1 -8.203093698265e+01  -1.062923428024e+02   1.090269721107e+02 
2 1  2.223064995262e+02   2.644906422277e+01   7.316099259076e+01 
3 1 -3.203755361607e+01   2.543719789352e+01  -6.155818521760e+01 
4 1  3.430250834932e+01   4.637467963316e+01  -1.210735916247e+02 
5 1 -8.005916969085e+01   1.419286686097e+02   1.499352575144e+02 
6 1 -2.938256038254e+02   5.703046889946e+01  -2.089086911499e+02 
7 1  1.610988854791e+02   1.005457593373e+02   7.825235235250e+01 
8 1 -1.174980438328e+02   5.731539355677e+01   1.620994989020e+01 
8
Step 54000
1 1  1.024376949551e+02  -4.438007390144e+01  -2.020868210990e+01 
2 1  6.417056418688e+01   8.123804889461e+01  -8.990017017341e+01 
3 1 -3.745784344852e+01   4.688058999429e-01  -1.543220158702e+01 
4 1 -1.772465036561e+02   3.119500043126e+02   2.263628994810e+01 
5 1  9.274278517294e+01   5.366078718459e+00  -1.440790087904e+02 