8
Step 0
1 1  1.976204776260e+02  -1.327257613333e+01   2.703176273771e+02 
2 1  2.003061905833e+02  -2.544223981605e+02   3.731957994478e+01 
3 1  3.175536340511e+01   7.854931605754e+01   2.211130902848e+02 
4 1  1.106521732543e+02  -1.894472683087e+02   2.165739811924e+02 
5 1 -2.560395550905e+02   9.179978589662e+01  -8.380647691923e+01 
6 1  3.277134704153e+02   3.549403928910e+02  -3.306515228372e+02 
7 1  3.843816880327e+01   1.374312923885e+02  -1.669173694866e+02 
8 1  6.066579180227e+01   1.956450288481e+02   2.848463208239e+01 
8
Step 100
1 1 -6.248463623723e+01  -3.122947683126e+01   5.838853340477e+02 
2 1  2.121619657282e+01   4.022043607309e+02  -2.644248353176e+02 
3 1 -3.232455624318e+02   8.296274386628e+02  -2.168728511793e+02 
4 1 -5.740997116005e+02   4.964928308371e+02   3.883851517990e+02 
5 1 -6.886828451042e+02   5.512254217079e+02  -2.377225595713e+02 
6 1  3.671517245945e+02  -4.126018981126e+02  -5.864858334044e+02 
7 1 -3.207399565339e+02   6.810445192580e+02   3.811142152919e+02 
8 1  5.897365930937e+02   7.701168436200e+01   3.807018151204e+01 
8
Step 200
1 1 -1.837735099419e+02  -1.472186838625e+02   3.625506381880e+02 
2 1 -5.383260869667e+00   4.068112146342e+02  -4.089736402982e+02 
3 1 -5.256033366556e+02   5.785857940028e+02  -5.406720885704e+02 
4 1 -3.708411521637e+02   6.953781240749e+02   3.375561883258e+02 
5 1 -3.417906561072e+02   5.018587609224e+02  -2.405572424498e+02 
6 1  1.984657527948e+02  -7.161082990120e+02  -2.445055885316e+02 
7 1 -3.774030732814e+02   4.441520162229e+02   5.751106173581e+02 
8 1  6.092055535727e+02  -3.544969399671e+02  -3.017357389458e+01 
8
Step 300
1 1  2.503087086590e+01  -2.786724416863e+02  -1.202609409466e+02 
2 1  1.994556433437e+02  -9.589726533846e+01  -4.045058151479e+02 
3 1 -4.243694366677e+02  -3.843479949091e+02  -4.563788163030e+02 
4 1  2.805183502183e+02   1.148132308226e+02   1.796340854254e+02 
5 1  3.651999378175e+02  -2.347167167608e+01  -1.929709402743e+02 
6 1  7.315457166869e+01  -2.117214151032e+02   3.254539488503e+02 
7 1 -5.909208301168e+01  -1.446735337660e+02   2.066752228547e+02 
8 1  1.373840430180e+02  -3.442195411078e+02  -4.586114870152e+01 
8
Step 400
1 1  1.841668584260e+02  -1.618766564802e+02  -4.247113876176e+02 
2 1  1.636139109326e+02  -4.236587749004e+02  -3.129538484676e+01 
3 1 -7.170333519436e+01  -8.851272300269e+02  -1.375632565040e+02 
4 1  4.959765914972e+02  -4.885428902102e+02  -5.195988072188e+01 
5 1  6.345762445681e+02  -5.721159475885e+02  -1.380939449099e+02 
6 1  2.446531800115e+01   4.822313914485e+02   5.083962573733e+02 
7 1  2.148022323162e+02  -3.708047272549e+02  -2.740151577682e+02 
8 1 -4.094357731392e+02   2.217579737917e+02   2.446996377801e+01 
8
Step 500
1 1  8.483173063521e+01   1.181493609132e+02  -3.241976584407e+02 
2 1 -2.220320400448e+02  -1.875208370410e+02   3.275195215178e+02 
3 1  3.082853979777e+02  -4.054534383652e+02   2.153300456875e+02 
4 1  4.878868634586e+01  -5.911815330656e+02  -2.910222190261e+02 
5 1  1.928962680269e+02  -5.721036393216e+02   1.231350991894e+02 
6 1 -1.025280496880e+02   5.774980259635e+02   1.418574751409e+02 
7 1  1.363282531551e+02  -1.246140256556e+02  -3.833363337071e+02 
8 1 -5.655921904352e+02   6.264731938076e+02   8.872376247202e+01 
8
Step 600
1 1 -5.361725214683e+01   1.873207763619e+02  -6.230755085144e+01 
2 1 -4.748586971414e+02   3.068148033558e+02   3.524671061800e+02 
3 1  4.580442063356e+02   3.752072651020e+02   3.783694187617e+02 
4 1 -5.921025514446e+02  -2.322902707918e+02  -3.879358825718e+02 
5 1 -3.340691705131e+02  -1.063398181872e+02   3.471372035882e+02 
6 1 -2.708573634456e+02  -2.393783895653e+01  -2.360114923305e+02 
7 1 -1.129140933141e+02   1.316444243832e+02  -8.205361938825e+01 
8 1 -2.417017143301e+02   3.488010870507e+02   4.022158894261e+01 
8
Step 700
1 1 -3.872035539997e+01  -6.750231875413e+01   8.045554217355e+01 
2 1 -2.819698059723e+02   3.501355058835e+02   1.683155298506e+02 
3 1  3.481755704361e+02   7.123383443390e+02   2.295027459388e+02 
4 1 -5.740742472102e+02   1.269401084663e+02  -3.419216270953e+02 
5 1 -4.013342590253e+02   2.978033342254e+02   1.403812731652e+02 
6 1 -3.468798695633e+02  -6.612445820528e+02  -1.667107413418e+02 
7 1 -1.523417524777e+02   1.003805556240e+02   2.516058200688e+02 
8 1  2.745086908356e+02  -3.026772654800e+02  -3.617179707762e+01 
8
Step 800
1 1  9.791786377169e+01  -3.028180366278e+02  -2.730394446939e+01 
2 1  8.423260020685e+01  -3.562878236112e+01   4.768300374014e+01 
3 1  4.239516354762e+01   3.740273172977e+02  -2.988719152101e+01 
4 1  6.310786798752e+01   1.606070909652e+02  -1.837770498897e+02 
5 1 -8.449909368429e+01   3.491091843467e+02  -2.904825984820e+02 
6 1 -1.550576515413e+02  -6.412003603719e+02   1.842742968470e+02 
7 1  1.506377764942e+02  -1.039142733133e+02   2.398896332548e+02 
8 1  5.002722779614e+02  -5.247614558811e+02  -1.128636892764e+01 
8
Step 900
1 1  3.575736682906e+01  -1.643431907215e+02  -1.740378862806e+02 
2 1  3.093490788383e+02  -3.598011968091e+02   1.495986826297e+02 
3 1 -1.199359452734e+02  -1.376898447188e+02  -2.004104224068e+02 
4 1  5.116531008653e+02   7.160386932863e+01   3.323929072650e+01 
5 1  1.404204733018e+02   1.543003291235e+02  -3.990114951891e+02 
6 1  2.705318759854e+01  -7.780902613750e+00   3.146502214447e+02 
7 1  4.528224604962e+02  -1.783506867941e+02  -5.356982249209e+01 
8 1  2.383788794774e+02  -4.850649903580e+01   1.357618754243e+02 
8
Step 1000
1 1 -2.695879438170e+02   2.914457778421e+02  -7.920288022410e+01 
2 1  2.350457373270e+02  -2.232893546151e+02   2.188784903423e+02 
3 1 -1.986364615313e+02  -3.260746634915e+02  -7.201932586658e+01 
4 1  3.184029468816e+02   1.377744225528e+02   2.358071711907e+02 
5 1  8.788060075805e+01   2.481337652652e+01   5.174992887896e-01 
6 1  2.714278566514e+02   4.091752213161e+02  -3.800212891261e+01 
7 1  3.405095802077e+02  -4.455646470316e+01  -2.666118072678e+02 
8 1 -2.697216213162e+02   5.283388581261e+02   2.196885486081e+02 
8
Step 1100
1 1 -4.069570759895e+02   5.452009844300e+02   1.909312940168e+02 
2 1 -4.120391498941e+01   5.815387622726e+01   2.114373460284e+00 
3 1 -9.918952805044e+01  -2.577545826851e+02   2.225121593497e+02 
4 1 -8.919049822896e+01   2.258192151741e+02   2.995905054039e+02 
5 1 -2.922363418589e+01   3.651887427226e+01   4.235768507101e+02 
6 1  3.993344123780e+02   4.605052891200e+02  -4.142244812337e+02 
7 1 -1.701059470435e+02   1.064328892463e+02  -2.014821601611e+02 
8 1 -5.318328814459e+02   4.784023103591e+02   5.889248208252e+01 
8
Step 1200
1 1 -1.342531460625e+02   2.603566550784e+02   3.837279969242e+02 
2 1 -1.106447699402e+02   1.616233164104e+02  -3.383568848456e+02 
3 1  3.655002454186e+01  -4.082756984724e+01   2.894162489540e+02 
4 1 -1.061513718364e+02   1.218178603505e+02   1.627149845134e+02 
5 1  4.204797042364e+01   7.041426056549e+01   3.239861346105e+02 
6 1  2.848303566376e+02   4.689152998670e+01  -3.411313359973e+02 
7 1 -5.794859081109e+02   1.402585447560e+02  -9.478420260166e+00 
8 1 -2.951798371390e+02  -1.431303414397e+02  -2.595240144445e+02 
8
Step 1300
1 1  3.458073460085e+02  -3.026313777074e+02   2.869941859382e+02 
2 1  6.589540808310e+01   4.898348617189e+01  -5.146238211190e+02 
3 1  2.027922751600e+01   4.640459956293e+01   4.792043497708e+01 
4 1  1.911509586229e+02  -9.931348123043e+01  -2.365890442227e+00 
5 1  2.135966636324e+02   2.270898101923e+00  -1.613750158385e+02 
6 1  2.919911865158e+01  -2.360467224002e+02   7.160360868837e+01 
7 1 -4.693704492057e+02   9.452652316023e+01   7.379419904451e+01 
8 1  1.961620738315e+02  -5.865583205666e+02  -4.147331450094e+02 
8
Step 1400
1 1  5.538567302384e+02  -5.719011924018e+02  -7.747539994926e+00 
2 1  1.237643692908e+02   1.434805740460e+01  -2.879587599130e+02 
3 1 -1.307190982946e+02  -7.073994584813e-01  -2.816592253575e+02 
4 1  2.973325554508e+02  -1.758333265195e+02  -9.419229265471e+00 
5 1  2.444706173523e+02  -1.215366976472e+02  -4.067155543378e+02 
6 1 -2.082176312060e+02  -7.858561679631e+01   2.880743989301e+02 
7 1  3.709106052554e+01   5.233428946498e+01   3.915439135910e+01 
8 1  4.874033295569e+02  -3.875586482965e+02  -2.090526640918e+02 
8
Step 1500
1 1  2.555963421162e+02  -2.911871676179e+02  -2.180228407953e+02 
2 1 -5.148830520633e+01   1.835830074445e+02   1.630567272929e+02 
3 1 -2.182577624639e+02  -7.443240861254e+01  -3.807990207607e+02 
4 1 -6.234910805597e+01  -6.071181960044e+01   5.911691044337e+01 
5 1  2.838122502805e+01  -2.610361863544e+02  -1.575420173127e+02 
6 1 -2.423372990959e+02   3.725300680687e+02   1.350545723115e+02 
7 1  4.198361396860e+02   8.996637082771e+00   6.543947248502e+01 
8 1  3.803311554130e+02   1.164267925677e+02   1.871428002121e+02 
8
Step 1600
1 1 -1.595711033549e+02   2.212952143877e+02  -2.802681463019e+02 
2 1 -2.058493401075e+02   2.577220381684e+02   4.301244477523e+02 
3 1 -4.191119387708e+01  -1.097602864458e+01  -2.238113421208e+02 
4 1 -4.789336718164e+02   8.400593385506e+01   3.277805442048e+01 
5 1 -3.249487815044e+02  -2.731570237925e+02   3.126785106049e+02 
6 1 -1.452887620931e+02   4.377115245496e+02  -9.443182626568e+01 
7 1  3.396991887473e+02  -9.720192229000e+01   1.835705715685e+02 
8 1  5.405829267774e+01   2.931004434858e+02   3.832172846242e+02 
8
Step 1700
1 1 -3.002909535283e+02   4.449863621998e+02  -2.457755609052e+02 
2 1 -9.096600655610e+01  -1.789078129858e+01   2.748114604044e+02 
3 1  1.719305909554e+02   1.304787353029e+02  -1.227479890129e+01 
4 1 -3.630343479264e+02  -5.099913806241e+00  -1.117592686783e+02 
5 1 -4.409405763310e+02  -3.234168850813e+01   4.707733058123e+02 
6 1 -5.234145209622e+01  -7.199939401628e+01  -4.055101664359e+01 
7 1 -5.632167012089e+01  -1.866659546228e+02   1.880368731643e+02 
8 1 -2.042108679072e+02   9.512052546841e+00   1.939140544101e+02 
8
Step 1800
1 1 -1.627639113024e+02   2.462711072694e+02  -6.948331164160e+01 
2 1  1.559444162471e+02  -4.504206837512e+02  -6.714513399341e+01 
3 1  2.036761881648e+02   2.609358890479e+02   1.478248571205e+02 
4 1  9.426263777147e+01  -2.971744940579e+02  -2.075057833215e+02 
5 1 -1.552140274725e+02   2.706543162657e+02   7.194881979796e+01 
6 1 -3.472148139518e+01  -6.378629056553e+02   1.478426315600e+02 
7 1 -3.134573381374e+02  -1.009360455565e+02  -3.135433896890e+01 
8 1 -2.561914599181e+02  -2.614368447390e+02  -1.406122255056e+02 
8
Step 1900
1 1 -4.859194475456e+01  -1.230480139994e+02   1.637671075760e+02 
2 1  1.977876378390e+02  -5.710375421011e+02  -2.191992417961e+02 
3 1  7.179476358896e+01   1.906236860091e+02   1.914364107528e+02 
4 1  3.327222618497e+02  -3.110118272982e+02  -4.214964819780e+01 
5 1  2.121749784932e+02   3.513883101010e+02  -4.047712290549e+02 
6 1 -1.603003475809e+00  -6.184126647190e+02   1.492002401581e+02 
7 1 -1.661005913053e+02   1.189574846314e+02  -2.812198425295e+02 
8 1 -2.033191630240e+02  -1.101780471259e+02  -2.538909152225e+02 
8
Step 2000
1 1 -1.105661337466e+02  -3.037573601937e+02   2.663373985532e+02 
2 1 -5.035554251511e+01  -8.672034043539e+01  -7.909732338586e+01 
3 1 -4.606436506549e+01  -9.189022019120e+01   1.500029280706e+02 
4 1  4.335596966322e+01   1.678774162557e+02   1.595699426213e+02 
5 1  3.587576775190e+02   9.995947304901e+01  -4.511364132816e+02 
6 1  9.971522860916e+01  -1.012707876240e+02   3.081382883623e+01 
7 1  2.310736764951e+02   2.272885023811e+02  -2.541771156402e+02 
8 1 -1.165230371914e+02   2.762671130880e+02  -3.126013840515e+01 
8
Step 2100
1 1 -1.890159442729e+02  -1.517779846782e+02   1.844279202549e+02 
2 1 -2.349677181828e+02   4.833226253495e+02   1.020939897978e+02 
3 1  2.230319281283e+01  -3.577884208186e+02   1.256746685722e+02 
4 1 -3.671397152299e+02   6.891864953069e+02   7.134221609124e+01 
5 1  1.545673620775e+02  -2.358296495901e+02  -9.831680017331e+01 
6 1  2.198013726492e+02   3.720509049467e+02  -6.591609551985e+01 
7 1  4.428481863313e+02   6.313936701075e+01   4.258067278388e+01 
8 1 -1.284714403462e+01   4.565570679308e+02   2.453525484099e+02 
8
Step 2200
1 1  8.671856442977e+00   2.692837351387e+01  -4.378721585113e+01 
2 1 -1.070586538911e+02   5.845124133700e+02   7.400550535643e+01 
3 1  1.498061693671e+02  -3.218789753722e+02   1.353938756567e+02 
4 1 -2.858391465436e+02   5.925910523407e+02  -2.969787432895e+02 
5 1 -1.322414422659e+02  -3.047089338892e+02   2.597117589606e+02 
6 1  1.229646908776e+02   4.485267115995e+02  -1.408463883279e+02 
7 1  1.991415494439e+02  -2.066425565280e+02   2.889670681834e+02 
8 1  9.372971617300e+01   2.192037441502e+02   2.631525698840e+02 
8
Step 2300
1 1  2.933656388875e+02   6.961692876652e+01  -2.259848785908e+02 
2 1  1.682176119531e+02   1.522924348905e+02  -1.408010829736e+02 
3 1  2.759237086959e+01   2.153705449383e+00   9.754554282533e+01 
4 1  3.573762424988e+02  -1.571216878096e+02  -5.450786908418e+02 
5 1 -1.630318021922e+02  -9.110886665537e+01   2.619851385350e+02 
6 1 -1.160224429800e+02   1.671594104506e+02  -1.013487159097e+02 
7 1 -3.324910130612e+02  -2.304675728485e+02   1.912832740809e+02 
8 1  1.447965192364e+02  -1.470553815589e+02  -1.063142792891e+00 
8
Step 2400
1 1  3.690900442128e+02   6.826872800509e+01  -2.566110923910e+02 
2 1  1.806452783804e+02  -4.160541953243e+02  -1.049610295328e+02 
3 1 -1.986695841185e+02   2.785544343840e+02  -4.301107199312e+01 
4 1  7.550088453549e+02  -9.524406685653e+02  -1.612525148501e+02 
5 1 -1.132987657345e+01   3.007586880515e+02  -4.663538150592e+01 
6 1 -1.929114967892e+02  -7.934772224561e+01  -7.578595243386e+01 
7 1 -6.245335065290e+02   2.693132653963e+01  -1.042860884985e+02 
8 1  8.281286984744e+01  -2.588154589073e+02  -2.718141881554e+02 
8
Step 2500
1 1  1.869271448572e+02   3.124234638295e+01  -6.836520703797e+01 
2 1 -1.109373528023e+02  -4.253480646625e+02   1.731604270252e+02 
3 1 -3.280518847716e+02   2.492788704030e+02  -2.123722376144e+02 
4 1  4.123980532270e+02  -9.170466327509e+02   6.394485299825e+02 
5 1  1.286577688731e+02   3.705203716299e+02  -1.750583693192e+02 
6 1 -6.012839101998e+01  -6.403847672864e+01  -1.066268483554e+02 
7 1 -3.153588020098e+02   2.528568354686e+02  -2.295240677977e+02 
8 1 -3.438493679731e+01  -1.018217164331e+02  -2.781829948046e+02 
8
Step 2600
1 1 -8.452182246207e+01   6.806452240683e+01   1.457945292781e+02 
2 1 -2.491488746050e+02  -3.449305999602e+01   4.074500347205e+02 
3 1 -1.350317611477e+02  -4.808240614143e+01  -3.468485943906e+02 
4 1 -3.324883502751e+02   9.679154614716e+01   8.785868426797e+02 
5 1  4.852681174115e+01   7.061787738642e+01   7.911576841624e+01 
6 1  1.433553347914e+02   1.678485724681e+01  -3.080145687148e+01 
7 1  2.991315666511e+02   1.241879195468e+02  -6.500822036608e+01 
8 1 -3.728145357028e+01  -4.576957978660e+00  -6.650694000920e+01 
8
Step 2700
1 1 -6.560137601258e+01   5.706323517080e+01   2.406658793206e+02 
2 1 -6.466509846619e+01   3.335989459756e+02   1.645301356885e+02 
3 1  1.541943341554e+02  -1.725126407072e+02  -3.218889087831e+02 
4 1 -6.285790821006e+02   1.043232382152e+03   2.560418387700e+02 
5 1 -1.892219922355e+02  -2.991662251619e+02   3.561037333021e+02 
6 1  1.410600712605e+02  -3.180141594322e+01   1.402641105966e+02 
7 1  5.964037707112e+02  -1.954815617381e+02   1.016066732056e+02 
8 1  1.006263327197e+02  -1.199867439095e+02   9.753872160913e+01 
8
Step 2800
1 1  5.931033335692e+01  -3.920739837335e+01   2.084806193738e+02 
2 1  2.865588628800e+02   3.181344987577e+02  -4.675660743880e+02 
3 1  1.453861871856e+02   2.616866175256e+01  -6.300768617303e+01 
4 1 -2.203708891757e+02   8.860499315496e+02  -4.757845154096e+02 
5 1 -3.269999495537e+02  -2.886470392686e+02   2.336945052391e+02 
6 1 -3.243652097825e+01  -1.248846699675e+02   2.295662419788e+02 
7 1  3.178675346364e+02  -2.497457133996e+02   3.187826134536e+01 
8 1  2.002613016134e+02  -2.368340558241e+02   9.622697706211e+01 
8
Step 2900
1 1 -8.055406571410e+01  -6.005124761840e+01   8.537057675861e+01 
2 1  3.068636989212e+02  -7.056068109928e+01  -6.722152525543e+02 
3 1  1.487106935782e+01   2.173114415191e+02   3.283585892760e+02 
4 1  2.461780822508e+02  -4.513746660287e+00  -5.094105273997e+02 
5 1 -1.310358009533e+02  -3.074846950449e+01  -2.040845146010e+02 
6 1 -1.398410796198e+02  -7.226366733298e+01   5.712282009150e+01 
7 1 -1.969985219233e+02   8.515034611297e+01  -1.135742407736e+02 
8 1  1.019271277026e+02  -1.272003103735e+02   4.911247048344e+01 
8
Step 3000
1 1 -3.613924786710e+02   5.724763567721e+01  -4.048413559322e+01 
2 1 -8.692717010925e+01  -3.421622434063e+02  -2.134494719308e+02 
3 1 -3.331679440461e+01   9.672763303882e+01   5.450162137680e+02 
4 1  2.327329506602e+02  -7.310772688572e+02   4.211566744934e+01 
5 1  3.204362360632e+02   1.034142569109e+02  -3.849448176270e+02 
6 1 -7.103668719658e+01   1.260605821862e+02  -1.910016092103e+02 
7 1 -4.241022627863e+02   4.442313810450e+02  -6.355325503010e+01 
8 1 -1.287233831027e+02   1.223261254146e+02   5.817858842316e+01 
8
Step 3100
1 1 -3.752954808903e+02   1.552109834399e+02  -9.438003423438e+01 
2 1 -3.474827168599e+02  -3.203779436480e+02   3.572700979903e+02 
3 1  7.071216734868e+01  -1.361266083897e+02   3.849262473421e+02 
4 1 -2.294272459943e+02  -6.278511493941e+02   3.311167710804e+02 
5 1  5.845262082197e+02   1.965950723934e+01  -1.830182887942e+02 
6 1  8.114528750623e+01   2.191836869079e+02  -1.668444654013e+02 
7 1 -2.148229097324e+02   3.595066760381e+02   1.614311665149e+02 
8 1 -2.575368301799e+02   2.445474477122e+02   6.829813290065e+01 
8
Step 3200
1 1  2.606351920170e+01   3.942467780576e+01  -7.815804478102e+01 
2 1 -1.591405858660e+02  -1.579211442287e+01   4.609461224317e+02 
3 1  2.074792042009e+02  -2.407951574373e+02  -9.259126042781e+01 
4 1 -4.144409894302e+02   7.310546801174e+01   2.395305389646e+01 
5 1  4.519341483939e+02  -1.005638632936e+02   1.097813490437e+02 
6 1 -9.838919844381e+01   9.996646417826e+01   3.850131807584e-01 
7 1  8.066798063868e+01  -1.500537417846e+02   1.949879643757e+02 
8 1 -1.896535182092e+02   1.573734162749e+02  -5.046964892198e+00 
8
Step 3300
1 1  4.060335234768e+02  -2.145877449146e+02  -1.815544631387e+02 
2 1  2.086032048580e+02   2.641877430065e+02   2.067305935480e+02 
3 1  6.455651728114e+01  -4.187273692737e+01  -4.818389632292e+02 
4 1 -4.678271544983e+01   5.097699458685e+02  -3.995405569220e+02 
5 1 -1.418814926752e+02  -4.053650350640e+01   6.796691602862e+01 
6 1 -2.393525893765e+02  -1.247258569106e+02   1.317964912384e+02 
7 1  2.515991230111e+02  -5.639880957021e+02  -2.486183941077e+01 
8 1 -3.198994096112e+01   9.081659906303e+00  -1.074884083596e+02 
8
Step 3400
1 1  3.097308088835e+02  -2.846951659884e+02  -2.242207869395e+02 
2 1  3.622542721920e+02   2.160693151891e+02  -1.859081309425e+02 
3 1 -1.692697635165e+02   2.742678459245e+02  -4.205918587915e+02 
4 1  4.512493008112e+02   2.316458205311e+02  -3.784196413217e+02 
5 1 -6.446462139151e+02   2.044628548923e+02  -1.271070256413e+02 
6 1 -1.359265903418e+02  -3.590760059851e+02   1.890778619037e+02 
7 1  1.774149130621e+02  -4.662226420467e+02  -2.146849864257e+02 
8 1  5.833710528195e+01  -2.464490533432e+01  -8.121814190703e+01 
8
Step 3500
1 1 -9.284735207912e+01  -1.609667877469e+02  -1.610871520240e+02 
2 1  1.750726065385e+02   7.243800038104e+01  -2.660679406976e+02 
3 1 -1.586575672975e+02   1.729637795536e+02   1.338599877832e+02 
4 1  4.566415921499e+02  -3.516220529207e+02   3.219129058771e+01 
5 1 -6.205314876114e+02   2.488449320615e+02  -9.726600993673e+01 
6 1  1.351121462795e+02  -2.983137685052e+02   1.951418657964e+01 
7 1  4.214801100193e+01   3.827306191396e+01  -6.247167189538e+01 
8 1  4.415706196617e+01   6.274306896639e+01   7.091695491219e+01 
8
Step 3600
1 1 -3.313422263357e+02   1.607475110912e+02  -6.152636648440e+01 
2 1 -1.826583286235e+02  -3.480440103487e+01   1.624652357979e+01 
3 1  8.515684205978e+01  -3.130965577086e+02   4.825258701206e+02 
4 1 -1.690738352573e+01  -5.094325983614e+02   2.826240192966e+02 
5 1 -1.770338418872e+02  -5.737340656183e+00   1.382513883626e+02 
6 1  4.090348552689e+02  -5.967721149433e+01  -7.496502888423e+01 
7 1 -7.108526664474e+01   4.380510290896e+02   2.572895620138e+02 
8 1  3.269261722435e+01   1.158620204356e+02   1.657968474855e+02 
8
Step 3700
1 1 -1.354475868124e+02   3.388130098496e+02   1.216258191903e+02 
2 1 -3.929024627306e+02   2.129806551211e+00   2.348291604269e+02 
3 1  2.187126526567e+02  -5.844563198548e+02   2.038455638664e+02 
4 1 -3.990882067394e+02  -6.066593576565e+01   1.531879393293e+02 
5 1  3.028217143739e+02  -2.879605475099e+02   2.397477555065e+02 
6 1  2.840762396217e+02   1.680339452619e+02  -3.039439750860e+01 
7 1 -1.943814521914e+02   3.664323611389e+02   2.640085865766e+02 
8 1  7.272627996892e+01   4.707368450264e+01   1.076215455364e+02 
8
Step 3800
1 1  1.824024495724e+02   1.597585200661e+02   3.112253436028e+02 
2 1 -2.801271694551e+02   6.565559963364e+01   2.190422771402e+02 
3 1 -2.266177668547e+01  -1.813827682132e+02  -3.547520223244e+02 
4 1 -2.424260817694e+02   4.702509806371e+02  -2.586049579780e+01 
5 1  4.043125211217e+02  -2.468264892450e+02   8.478292157374e+01 
6 1 -1.144603642801e+02   2.595951017633e+02  -2.896649782013e+01 
7 1 -2.750359768085e+02  -4.501882977408e+01  -1.490314506089e+02 
8 1  1.098455573567e+02  -9.528858692438e+01  -7.361822083330e+01 
8
Step 3900
1 1  2.214088955554e+02  -1.829825705343e+02   3.614464940740e+02 
2 1  1.528076545378e+01   3.479620472936e+00   6.634554330225e+01 
3 1 -3.264971587336e+02   5.264472449297e+02  -4.621434821729e+02 
4 1  1.163035062399e+02   5.376853836641e+02   6.896288526581e+01 
5 1  2.153312474168e+02   7.042035898683e+01  -6.675946850319e+01 
6 1 -2.981131357126e+02   2.509892390390e+02  -1.840928230683e+02 
7 1 -1.506143690849e+02  -3.401778471196e+02  -4.960127693105e+02 
8 1  9.381014532669e+01  -2.033441218149e+02  -1.988331386395e+02 
8
Step 4000
1 1 -3.211201949704e+01  -2.696271967708e+02   2.789564752531e+02 
2 1  2.138345586782e+02  -1.841259406662e+02  -4.290031130771e+01 
3 1 -3.034420030769e+02   7.819866821349e+02  -6.711877701605e+01 
4 1  3.044200309450e+02   1.190040855187e+02   2.333305009489e+02 
5 1  3.977582765791e+01   3.294617278054e+02   4.435271243279e+01 
6 1 -2.566253295897e+01   1.903337947776e+02  -2.672528606183e+02 
7 1  2.122817459850e+02  -2.573320038709e+02  -3.263527526915e+02 
8 1  3.141185272134e+01  -1.774407852870e+02  -1.686363607726e+02 
8
Step 4100
1 1 -2.042471394035e+02  -3.458896282683e+01   6.310308104646e+01 
2 1  1.458352669849e+02  -2.238370298701e+02  -1.309913898325e+02 
3 1  1.671263622306e+02   2.937307884538e+02   2.860113714394e+02 
4 1  1.623970577073e+02  -3.432217743654e+02   1.075693966503e+02 
5 1  2.348445360305e+01   2.476813634467e+02   2.259750484515e+02 
6 1  3.370283881201e+02   6.645762826355e+01  -2.905943815473e+01 
7 1  4.658022448335e+02   2.071111092363e+02   2.318577770027e+02 
8 1 -2.314229314876e+01  -3.787943967047e+01  -5.517713064763e+01 
8
Step 4200
1 1 -2.828489788722e+01   3.084295968621e+02  -2.774557841988e+02 
2 1  4.867035198159e+01  -5.516726066924e+01  -1.544554900957e+02 
3 1  5.239513872694e+02  -3.595755710499e+02   1.677414032468e+02 
4 1 -1.809920738671e+02  -4.674772846891e+02  -2.125091956130e+02 
5 1  3.026029832356e+01  -4.376816855271e+01   7.454834436515e+01 
6 1  2.284982362434e+02  -7.716031887422e+01   3.747346250051e+02 
7 1  3.171911218671e+02   5.665764174154e+02   5.257565655360e+02 
8 1 -6.737410648089e+01   8.978800736736e+01   4.931042667933e+01 
8
Step 4300
1 1  2.873459700433e+02   3.352001280946e+02  -4.912552583758e+02 
2 1  2.806875607719e+01   1.543757994357e+02  -8.130203312448e+01 
3 1  2.803113838687e+02  -5.242687925732e+02  -1.786648370896e+02 
4 1 -3.266938844503e+02  -1.946659140071e+02  -3.193381670552e+02 
5 1 -8.353287103378e+01  -2.343191257775e+02  -3.769996972820e+02 
6 1 -3.170430808198e+02  -1.724017648768e+02   4.695176946933e+02 
7 1 -1.507829750105e+02   4.241477170560e+02   2.036903658891e+02 
8 1 -1.086393096791e+02   7.562901377814e+01   1.270374571276e+02 
8
Step 4400
1 1  2.994548481245e+02  -6.966814850261e+00  -3.498206311767e+02 
2 1  2.951940104382e+00   2.798371972225e+02  -3.909933229915e+00 
3 1 -2.324344996723e+02  -3.115170803032e+02  -2.005757496217e+02 
4 1 -1.106003271920e+02   1.951299875063e+02  -3.106908435820e+01 
5 1 -2.090238895549e+02  -2.068734966909e+02  -5.843627695492e+02 
6 1 -6.511352589161e+02  -1.641737274796e+02   8.852419656424e+01 
7 1 -4.731462641568e+02  -1.813254316745e+02  -2.940807460692e+02 
8 1 -1.176016955456e+02  -6.807333138406e+01   1.626704271854e+02 
8
Step 4500
1 1 -8.938060750510e+00  -4.186787574357e+02   2.771310689759e+01 
2 1  4.665636003936e+00   1.594001579094e+02   2.831667261259e+01 
3 1 -4.476377868790e+02  -4.840385415383e+01   1.628791610550e+02 
4 1  1.413156467868e+02   4.089171648537e+02   2.660182156860e+02 
5 1 -1.586361730417e+02  -8.971729419532e+01  -2.055686705707e+02 
6 1 -2.657737929595e+02  -1.221784815523e+02  -3.549107279019e+02 
7 1 -3.126676897900e+02  -6.801487136803e+02  -3.196237533032e+02 
8 1 -5.628056810388e+01  -1.506808801101e+02   1.096929367995e+02 
8
Step 4600
1 1 -3.177170735981e+02  -4.510831369470e+02   3.446001657518e+02 
2 1  5.845667275905e+01  -4.476679322993e+01  -1.075342892873e+02 
3 1 -2.084221674822e+02   1.095033984414e+02   4.409935227807e+02 
4 1  1.274254730215e+02   2.797950745373e+02   1.485867589865e+02 
5 1  4.715934306841e+01  -1.034825399035e+01   4.315411284799e+02 
6 1  4.788209513410e+02  -1.381074154904e+02  -3.440197596793e+02 
7 1  1.407206138812e+02  -6.087944346909e+02   1.047587845301e+02 
8 1  5.042226689100e+01  -9.461150395463e+00  -2.723551851825e+01 
8
Step 4700
1 1 -3.757898166756e+02  -8.128493123965e+01   3.888408893263e+02 
2 1  9.149617357279e+01  -1.162516888484e+02  -2.617166210098e+02 
3 1  1.359902265494e+02   1.795821017913e+02   1.964184494097e+02 
4 1 -7.593487687601e+01  -2.894564045292e+01  -2.607957054414e+02 
5 1  1.897021874550e+02   8.337201502226e+01   6.617347614815e+02 
6 1  7.215765100293e+02  -1.278137881150e+02   4.889988420399e+01 
7 1  3.680268409426e+02  -7.464869391931e+01   3.825538629263e+02 
8 1  9.424477929839e+01   2.664916728615e+02  -1.347339210495e+02 
8
Step 4800
1 1 -1.907558287996e+02   3.714047191488e+02   1.042556990837e+02 
2 1 -7.851602929952e+00  -9.516626796008e+01  -1.249493859878e+02 
3 1  2.723699402610e+02   2.336023765405e+02  -2.934657418268e+02 
4 1 -2.834343920701e+02  -2.460557652349e+02  -5.087159785441e+02 
5 1  1.750914449981e+02   9.909110063715e+01   3.169814654774e+02 
6 1  1.923298827105e+02   9.081963510794e+00   3.316724258624e+02 
7 1  1.590829399227e+02   3.690214417713e+02   1.569113642591e+02 
8 1 -2.597715573108e+01   4.095765816085e+02  -1.133364249393e+02 
8
Step 4900
1 1  5.283230983184e+01   4.554682809872e+02  -2.577396851417e+02 
2 1 -1.984828017332e+02  -7.239059312976e+01   3.067287482793e+02 
3 1  1.550669497933e+02   2.046507969566e+02  -3.951861542024e+02 
4 1 -2.258060358832e+02  -3.655083880187e+02  -2.828206121729e+02 
5 1  3.425744044983e+01   8.008522340004e+01  -1.728375665266e+02 
6 1 -5.261309532547e+02   1.940624789310e+02   1.567817006907e+02 
7 1 -1.887288440677e+02   3.655729404204e+02  -2.835662479048e+02 
8 1 -8.161727822358e+01   1.894878622939e+02   2.089333698506e+01 
8
Step 5000
1 1  1.751922775441e+02   1.024618808952e+02  -3.557943815738e+02 
2 1 -2.936132726024e+02  -7.546224142564e+01   6.322875081506e+02 
3 1 -2.892282477970e+01  -3.851002462806e+01  -1.864112394734e+01 
4 1  2.524344983120e+02  -3.908067180862e+02   2.537880205560e+02 
5 1 -1.826785483587e+02   1.105355020522e+01  -4.412382290366e+02 
6 1 -5.911332845469e+02   2.588679098598e+02  -2.028765754206e+02 
7 1 -2.418454598235e+02   1.090461313266e+02  -3.518479337725e+02 
8 1  1.347592392313e+01  -1.564694701195e+02   8.866634235779e+01 
8
Step 5100
1 1  2.558242812861e+02  -2.824540364220e+02  -1.456630754842e+02 
2 1 -1.822070366411e+02  -5.803246787041e+01   5.017038912924e+02 
3 1 -4.098592995862e+01  -3.504574083268e+02   3.095194985559e+02 
4 1  6.279420106301e+02  -7.335107676229e+01   5.281010495121e+02 
5 1 -2.916340048630e+02  -6.902453108576e+01  -3.707271445064e+02 
6 1 -3.869952981211e+01   9.054595391445e+01  -2.810474394143e+02 
7 1  1.256047980687e+01  -1.006181005872e+01  -8.528110262022e+00 
8 1  1.615974688303e+02  -2.920621474025e+02   2.337487921566e+01 
8
Step 5200
1 1  2.229904250088e+02  -3.024606044120e+02   8.010851900224e+01 
2 1  1.160483433360e+02   3.742026167159e+01   2.247401338649e+01 
3 1  2.515619550353e+00  -3.271228087213e+02   1.947544622016e+02 
4 1  4.004180903475e+02   4.343785535268e+02   2.724454579698e+02 
5 1 -2.450707863797e+02  -4.564009479703e+01  -2.908329994062e+01 
6 1  5.334629633302e+02  -6.910048733881e+01  -9.893254238959e+01 
7 1  1.957914058746e+02   7.995964452602e+01   2.250875872591e+02 
8 1  2.092033294945e+02  -1.988440011131e+02  -5.968015322292e+01 
8
Step 5300
1 1  5.473264241923e+01  -1.282479592654e+01   1.233249445536e+02 
2 1  3.680014931446e+02   9.218840439191e+01  -4.208634210614e+02 
3 1 -2.303747929575e+01   1.530132450676e+02  -2.106325241750e+02 
4 1 -2.291904270874e+02   6.826311114239e+02  -2.646431456300e+01 
5 1  1.025531063636e+00   1.360680204910e+02   1.936037857237e+02 
6 1  4.790672141302e+02  -7.385425767163e+01   1.102084060824e+02 
7 1  7.343807726360e+01   9.795037623862e+01   3.367729594069e+01 
8 1  5.786986069149e+01  -1.024566475372e+02  -4.487535933100e+01 
8
Step 5400
1 1 -7.282841176930e+01   2.445279793249e+02   1.356715495505e+02 
2 1  3.376623073865e+02   4.429619045226e+01  -5.753418114511e+02 
3 1 -8.988941126415e+01   5.530365248287e+02  -4.171639575778e+02 
4 1 -6.396870996690e+02   4.127810404723e+02   1.318174695722e+01 
5 1  2.805882965009e+02   1.531754547191e+02   1.453274671745e+02 
6 1  3.416542143872e+00   9.458209490357e+01   1.204398301752e+02 