8
Step 0
1 1  3.925936639999e+02  -1.543008928071e+02  -1.440228048609e+02 
2 1 -3.379341087660e+02  -3.925505874471e+02   3.683521818855e+02 
3 1 -3.424884316572e+02  -2.182720383758e+02   4.091092859017e+02 
4 1 -2.495589300526e+02  -4.683427121431e+01   3.142915232886e+02 
5 1  3.184003193496e+02  -2.363421945060e+02   2.760046204839e+02 
6 1  6.480739281491e+02   6.885028007930e+02  -2.003080180061e+02 
7 1  1.705097250055e+01  -3.196006587446e+02  -1.875622399230e+01 
8 1 -1.126140154026e+02  -3.910938041795e+02   4.674400516380e+02 
8
Step 1000
1 1 -1.295314763666e+02   1.599424064262e+02  -1.735055221498e+02 
2 1 -2.830100629255e+02   2.429034967060e+02   3.568647886092e+02 
3 1  3.081608050380e+02  -5.381619572763e+02   1.467463912019e+02 
4 1  6.501012905681e+01   1.992026506623e+02   3.074690996620e+00 
5 1  3.420823427356e+02  -4.363625995963e+02   4.559941171582e+02 
6 1 -2.682802687754e+02   4.989726180111e+02   1.106640298308e+02 
7 1  2.344861114356e+02  -4.765651343356e+02   3.390822618413e+01 
8 1 -2.055411794439e+02  -3.752878174865e+01   3.924770597030e+02 
8
Step 2000
1 1  1.501655753924e+02  -4.642903033349e+02  -2.565594272567e+02 
2 1  1.741105149541e+01  -3.116986094764e+02   7.087285545711e+02 
3 1  1.548329339773e+02  -4.075270985336e+02   1.050983431403e+02 
4 1 -1.374419119182e+02  -2.213665906235e+02  -2.937096196054e+02 
5 1  1.924645715792e+02  -1.262116696496e+02   1.503108563655e+02 
6 1  6.565002822286e+01  -4.027704357937e+02   1.508577726065e+02 
7 1  1.636662861043e+02  -7.739911980093e+01   2.204459607012e+02 
8 1  1.624982508979e+02  -1.409744815980e+02   3.279793966764e+02 
8
Step 3000
1 1 -1.446286418948e+02   3.770567317834e+02  -4.479652700865e+01 
2 1  1.981374049662e+02  -4.026148792028e+02  -1.293679755086e+02 
3 1  2.551408876652e+02  -9.712635538156e+01   3.726140487319e+02 
4 1  4.039797001577e+02  -5.673926943034e+02  -3.234797859700e+02 
5 1 -2.077682706287e+02  -5.058900826224e+01   4.042877950260e+02 
6 1  1.792830836947e+02  -8.582372964529e+02   5.233801861671e+02 
7 1 -1.299923010455e+02   1.710495710531e+02   2.888717641888e+02 
8 1 -2.539859843589e+02  -2.763243351924e+02  -3.878431316883e+01 
8
Step 4000
1 1  3.555828513154e+02  -3.838226514014e+02   1.322989698052e+02 
2 1  2.186945865827e+02  -1.978010317062e+02  -1.214535562961e+02 
3 1  3.663479818256e+01  -4.651856388537e+02   3.540469223436e+02 
4 1  2.875531213169e+02   1.982306778326e+02  -3.554069849812e+02 
5 1 -4.128365880018e+02  -3.093985584811e+02   2.593004215081e+02 
6 1  6.918903039622e+01  -4.191497424262e+02   2.092961162524e+02 
7 1 -2.175206635497e+01  -3.585793336705e+02   9.805642645783e+01 
8 1  3.194570867475e+02  -4.442768606689e+02   1.699160730814e+02 
8
Step 5000
1 1  4.082357866395e+02   1.279098735616e+02   2.493558127118e+02 
2 1  1.564758700342e+02  -1.985138741783e+02  -1.098019004225e+01 
3 1  3.113020916378e+02  -4.638730313553e+02  -1.266812141722e+02 
4 1 -1.087143009504e+02   3.950473323985e+02  -2.495188445631e+02 
5 1  1.754107056029e+02  -5.577637277364e+02   4.533133862316e+02 
6 1  3.552089403965e+01   4.556504241872e+00   9.047870541263e+01 
7 1 -2.529358469104e+02  -5.431829038713e+02  -1.252096224098e+02 
8 1 -3.156262443441e+02   1.628221009180e+02  -1.320666707373e+02 
8
Step 6000
1 1  1.621076119944e+02   1.562096342956e+02  -7.893058019812e+01 
2 1 -1.853984008910e+01  -3.262201032502e+02  -8.806421066967e+01 
3 1  4.882868984481e+02  -2.312735051207e+02   3.035640434629e+01 
4 1 -3.546587562295e+02  -5.122481431734e+01  -9.387137502390e+02 
5 1 -2.116060277378e+01  -4.877531129808e+02   3.358097173410e+02 
6 1 -1.468705170754e+02  -5.277044283507e+02   1.957728316545e+02 
7 1  4.606158002001e+01  -4.944744930667e+02  -4.186222480795e+01 
8 1 -2.676908958116e+02   2.448199175915e+02   1.166050022624e+02 
8
Step 7000
1 1  3.018238341217e+02  -6.906056709880e+01   7.946903644603e+01 
2 1  1.706029090822e+02  -8.210247889216e+01   3.099910406728e+01 
3 1 -2.377342823633e+02  -1.285090276884e+02   8.991410852504e+01 
4 1  1.886014361332e+02   2.181283438124e+01  -8.917838235018e+02 
5 1 -4.185595280067e+02   1.728882391362e+02   4.585261323932e+02 
6 1  1.786340402812e+02  -3.186261002835e+02   2.682453922990e+02 
7 1 -1.294105990262e+02   9.189988157981e+01  -3.870657950487e+02 
8 1 -1.985614897757e+02   1.064218068050e+01  -3.198048853062e+02 
8
Step 8000
1 1 -3.978891473950e+01   3.478744245246e+02   2.618967039197e+01 
2 1 -5.781452375398e+00   2.243913705026e+02  -3.480043162831e+02 
3 1 -4.411770066641e+02  -1.164526182772e+02  -2.179558770304e+01 
4 1  2.690227832491e+02  -2.763911589800e+01  -4.944719616595e+02 
5 1 -3.512658492302e+02  -3.392146413881e+02   1.904874840604e+02 
6 1  1.444937209222e+02  -1.323038505071e+02   1.071950725888e+02 
7 1 -1.770253856884e+02   3.010707751382e+02   1.139450789485e+02 
8 1 -1.027692842084e+02   1.123157423688e+02  -2.853418785150e+02 
8
Step 9000
1 1  1.983985834148e+02  -1.788907836997e+02   9.471041109188e+01 
2 1 -3.069334780403e+02  -2.303668911187e+02  -3.178784611223e+02 
3 1 -1.316331361296e+02  -2.019670237254e+00   1.271987189094e+02 
4 1  2.407654365037e+01   3.227220573379e+02  -1.238663665409e+02 
5 1  8.727269364201e+01   6.532247953280e+00  -9.826050149274e+01 
6 1 -3.623320719187e+02   4.224982367028e+02  -1.417659338920e+01 
7 1  3.969212491991e+01   2.925189742033e+02  -1.477132415911e+02 
8 1 -4.779415452070e+01   2.454472542062e+02  -4.603813135912e+02 
8
Step 10000
1 1 -4.190657352391e+02   4.826251737442e+02  -2.432075949591e+02 
2 1  2.574980639866e+01   1.398804459646e+02  -1.544961601722e+02 
3 1 -6.908434728065e+01  -3.571678689637e+02  -1.918273564410e+02 
4 1 -8.870145664997e+01  -6.307595403834e+01  -2.649775365455e+02 
5 1 -2.111622085061e+02  -3.085189947465e+02   5.052387849508e+01 
6 1 -3.785626205687e+02   3.613258068997e+01   2.134876767966e+02 
7 1 -1.564895755840e+01   2.461493937711e+02  -1.787371386738e+02 
8 1 -1.109949336842e+02   1.236659353657e+03  -3.869767233744e+01 
8
Step 11000
1 1 -5.817406051728e+02  -7.771812539799e+00  -2.279918797029e+02 
2 1 -1.177662918772e+02  -1.496876083842e+02  -5.391509393125e+01 
3 1  1.156185834912e+02   1.753182942482e+01   3.406647103416e+02 
4 1  1.079349615886e+02   3.278404690120e+02  -1.786825986088e+02 
5 1 -1.256925706500e+02   1.183332449103e+02   2.443282855015e+02 
6 1  1.469792060787e+01   2.197729520310e+02  -2.338945844886e+02 
7 1 -2.229946908193e+02   5.345965119966e+01  -2.493553625324e+02 
8 1  9.336980476024e+01   5.988556622945e+02   1.137989541930e+02 
8
Step 12000
1 1 -5.867899482086e+02   9.905234712461e+02   2.403058803319e+02 
2 1  3.176276358963e+02  -8.999831621451e+01  -2.207629532099e+02 
3 1 -6.225120087750e+01  -1.608524559350e+00   2.248731197869e+02 
4 1 -5.583744418438e+01  -1.182337229889e+02   1.535162116100e+02 
5 1 -2.019260866342e+02   3.983932944472e+02   4.474747479747e+02 
6 1  1.145683045298e+02   1.601715488397e+02  -1.240292650613e+02 
7 1 -2.370377931228e+02   6.507060397262e+02  -1.582847000574e+02 
8 1  2.175823858848e+01   8.240798540420e+02  -2.011182111100e+02 
8
Step 13000
1 1 -2.030750020986e+02   1.460210139493e+02   3.905307885821e+02 
2 1 -1.314815973346e+02   5.284885529458e+01  -3.977777652449e+02 
3 1 -3.647602931345e+02   1.590111820705e+02   2.001315346581e+02 
4 1  2.923605407114e+02  -7.802628748824e+01   4.124743767525e+02 
5 1 -2.507749434569e+02   2.932785159847e+02   1.680298887454e+02 
6 1  1.161312772224e+01   3.266179262292e+01  -1.402279607527e+02 
7 1  3.629792137961e+01   2.845187884144e+02  -3.582221408210e+01 
8 1 -2.450060605484e+02   7.039874908297e+01   3.808034383829e+01 
8
Step 14000
1 1  5.764561997248e+02   3.463684898217e+02   4.337784186793e+02 
2 1 -9.281807821387e+01   1.534206567600e+02  -2.295824563499e+02 
3 1 -2.529402767333e+02   4.141027490086e+01   2.197374340750e+02 
4 1 -8.426621395463e+00   8.344388060588e+01   3.257429757788e+02 
5 1 -8.441859864644e+01  -2.233001227717e+02   1.180362048935e+02 
6 1  1.890757637825e+01   5.023773182590e+02  -1.644571115741e+02 
7 1  3.056729004481e+02   1.878899323058e+02   2.417228951554e+02 
8 1 -2.431171757606e+02   3.136069465925e+02  -1.291954015162e+02 
8
Step 15000
1 1  1.049485467301e+02   3.199214352830e+02   1.065420083040e+02 
2 1  7.449761663476e+01   7.248712955264e+00   2.086730276580e+02 
3 1 -1.694680497106e+02   2.420059567079e+02   3.679778575992e+01 
4 1  1.336405071645e+00   1.999146087917e+02   5.635817559044e+02 
5 1  2.124964068410e+02  -2.663191938619e+02   1.472349089659e+02 
6 1  9.825859981661e+01   7.965931887661e+01   9.808433964784e+01 
7 1  1.753920082790e+02  -1.939149800177e+02   1.641237239355e+02 
8 1  3.968282577529e+01   3.380514896560e+02   2.530411885820e+02 
8
Step 16000
1 1  1.696782210232e+02  -3.265145112614e+01   9.180804542368e+01 
2 1  1.031733692418e+02   2.794576149970e+01   5.806428202078e+02 
3 1 -7.496408929419e+01   2.347421067290e+02   3.506304853881e+02 
4 1  4.323691729571e+02  -1.616635531653e+02   4.851151787691e+02 
5 1  1.586898691483e+02   3.488156517871e+02  -8.591608631482e+01 
6 1  1.303873421570e+02   1.507668085615e+02  -3.287259627583e+02 
7 1  7.656577554071e+01  -6.166155179570e+01  -2.497849292682e+02 
8 1  3.206475178703e+02   5.276983274185e+01   2.390373200788e+02 
8
Step 17000
1 1 -2.690481181522e+02   3.099647828596e+02   2.581587786709e+02 
2 1  3.557760643841e+02  -2.883149339782e+02  -3.434387678971e+02 
3 1  2.863273848550e+02  -3.897655765771e+01   2.279896662821e+02 
4 1  2.291970782389e+02  -1.067057864818e+02   3.137553285332e+02 
5 1 -3.041421451615e+02   5.446822801741e+01   2.013586880189e+02 
6 1  1.943452280434e+00  -2.925430041225e+02  -3.782559174048e+02 
7 1  2.407802387439e+02   7.984470311117e+00   2.652581331492e+02 
8 1  4.109479559377e+02  -2.122422214241e+02   4.491435612327e+02 
8
Step 18000
1 1 -1.284965634351e+02  -1.365874555136e+02   4.728675842346e+02 
2 1  2.436157904880e+02  -2.206529248072e+02  -1.632130910547e+02 
3 1  4.575875715218e+02  -1.043892975230e+02  -3.878132154375e+01 
4 1  1.621753024150e+02   2.394391697489e+02   2.421597933430e+02 
5 1  2.540442078772e+02  -2.710521678066e+01  -5.447000382911e+02 
6 1 -4.456354231166e+01  -5.163746390430e+01  -6.950774241452e+02 
7 1  3.475224579835e+02  -2.049703490540e+02   2.280944082818e+01 
8 1  2.719086626415e+02  -3.561372186964e+02   3.761948708366e+02 
8
Step 19000
1 1  1.485236814884e+02  -3.163924104553e+01   1.413639623709e+02 
2 1 -3.162622641247e+02   8.030986708072e+01  -6.869072783633e+01 
3 1  6.292418552662e+02  -2.602745569104e+02  -2.514920222228e+02 
4 1  1.458180375790e+02  -1.136017075189e+02   6.257434480682e+02 
5 1 -8.670898641877e+01   2.517351498165e+02  -4.248375699513e+02 
6 1  4.387759169023e+01   2.135440467715e+02  -4.632124811013e+01 
7 1  6.366340572956e+02  -2.766314038953e+02   3.295206456676e+02 
8 1  2.411939061453e+02   3.881709061347e+01   2.381264149342e+02 
8
Step 20000
1 1 -8.671549529680e+00   1.121363894784e+02  -4.933484273761e+01 
2 1 -1.996833296231e+02  -2.293686024462e+02   2.146532726590e+02 
3 1  1.491264810262e+02  -3.607078582800e+02  -2.376219746189e+02 
4 1  2.839161339774e+02  -2.838541940639e+02  -1.004770390291e+02 
5 1  1.594589270470e+02   2.913896957003e+02  -5.101328289661e+02 
6 1  1.720594362230e+02   3.471936485207e+01  -4.907430852309e+02 
7 1  4.075816844387e+01  -3.006662336570e+02   8.593020910379e+01 
8 1  2.284731360918e+02  -4.138745133693e+02   3.492352399151e+00 
8
Step 21000
1 1  3.419971671343e+02  -9.983154729905e+01  -4.819633410024e+02 
2 1  9.343177617604e+01  -1.604739210755e+01   2.917897967689e+02 
3 1 -1.460460387103e+02   3.498860954408e+01  -3.301748867979e+02 
4 1  3.988086292956e+01  -3.020956483212e+02  -2.162522356316e+02 
5 1  3.528992666500e+02   1.702871204490e+02  -8.251323696773e+01 
6 1 -1.219082360434e+02   4.279670472409e+02  -2.804469113418e+02 
7 1 -2.299542263825e+02   3.217438063760e+01  -1.885599492755e+02 
8 1  4.151992714343e+02  -4.218418584702e+02   1.674253189380e+02 
8
Step 22000
1 1 -1.661677927772e+02  -7.988500082382e+01  -2.855470351594e+02 
2 1 -1.114737476111e+02   2.469330050877e+02  -3.467062296532e+02 
3 1  2.872916469415e+02  -1.426130160677e+02  -2.554104723959e+02 
4 1  2.725569536625e+02  -3.334877520597e+02   1.333045877140e+01 
5 1 -1.159970292894e+02   1.395031848726e+02  -4.239305577944e+02 
6 1 -2.090698867296e+02  -1.085012542061e+02  -1.500539060016e+02 
7 1  1.994273018914e+02  -1.970739363394e+01   1.199013321364e+02 
8 1 -3.920459526377e+01  -1.929655088723e+02  -5.732554937553e+01 
8
Step 23000
1 1  1.573315747019e+01  -2.879128015803e+02  -4.963660296827e+02 
2 1  2.061053877203e+02   3.926695466497e+02   1.044942275053e+02 
3 1  1.127714020363e+02   3.051381824184e+02  -3.355172102721e+02 
4 1  3.120758630400e+02   1.738968241196e+02   3.377182322511e+02 
5 1 -1.418781456970e+01  -1.711091368933e+02  -2.223295490722e+01 
6 1  7.841005332302e+01  -9.976789723091e+01  -3.552301941187e+02 
7 1 -3.860684301557e+00   4.898047551396e+02  -8.627046690933e+00 
8 1 -4.272241173658e+02   2.451763847319e+02  -4.234374566122e+02 
8
Step 24000
1 1 -2.689814072751e+02  -8.453312087662e+01  -3.337437759823e+02 
2 1 -5.863071466139e+02   5.459332490545e+01   5.810010022151e+00 
3 1  3.555409034859e+02   1.872755219805e+02  -2.816417291204e+02 
4 1  1.358572482575e+02  -1.944932284189e+02   3.507269827739e+02 
5 1 -1.250675756523e+02   4.265105076716e+01  -1.972042087969e+02 
6 1 -1.223869532453e+02  -3.579328248480e+01  -1.943354150265e+02 
7 1 -3.607027605709e+02  -1.331388276144e+02   7.530569250199e+01 
8 1 -3.344195709958e+02   1.698909917480e+02  -4.427257112283e+02 
8
Step 25000
1 1  3.498323535659e+02   2.473438055305e+02  -3.434657387565e+02 
2 1 -2.250907444838e+02   4.409365730807e+02  -4.408251894995e+01 
3 1  2.944412384211e+02  -1.766239499181e+01  -3.157196297759e+02 
4 1  5.911443081251e+01  -5.618276338055e+02   1.709308782010e+02 
5 1  8.924564164434e+00   2.376353328616e+02  -1.059546109029e+01 
6 1 -4.494890051353e+02   2.898440461297e+01  -1.102915851277e+01 
7 1 -2.663644009452e+02   2.014360037151e+02  -8.423782390408e+01 
8 1 -3.278186061199e+02   5.135663318615e+02  -6.083691475652e+02 
8
Step 26000
1 1 -1.794430405311e+02  -2.562166278420e+02  -5.096618188142e+02 
2 1 -4.313939015133e+02   3.563296853505e+01  -3.490918423937e+02 
3 1 -3.555167750205e+02   2.545380357135e+02   6.648483605223e+01 
4 1  1.878865684952e+02   2.337702048262e+02   9.163228829866e+01 
5 1  1.766946448269e+02  -5.678100802500e+01   4.367336751801e+02 
6 1 -2.989569209584e+02   2.879034332502e+02   5.605177134026e+02 
7 1 -2.035808317829e+02   7.913198304453e+02   1.476112488634e+02 
8 1 -1.644542435733e+00   1.194167535901e+01  -1.057764410723e+02 
8
Step 27000
1 1 -9.218554147184e+01   1.213267498104e+02   7.723012009001e+01 
2 1 -2.561087333749e+01   4.465545838329e+02  -2.618950560973e+02 
3 1  2.061176047995e+02  -6.143525390584e+01   2.704162264893e+01 
4 1  1.546252727432e+02  -1.568697707430e+02   4.698372788895e+01 
5 1 -1.226071413308e+02  -3.053238335034e+02  -1.975988927684e+02 
6 1 -8.883648539128e+01   2.483431198463e+02   3.609449346514e+02 
7 1 -4.658916892249e+02   5.623595568828e+02   9.339037135942e+01 
8 1 -2.721057044850e+02   4.260029026540e+02  -4.101106503805e+02 
8
Step 28000
1 1 -7.559721790156e+01  -5.693419187657e+02  -3.973385120556e+02 
2 1 -1.599954630390e+02   1.734697992198e+02   2.602881842066e+02 
3 1 -2.502652661833e+01  -1.135868519984e+02  -2.715450024422e+02 
4 1 -1.672221197530e+02   1.002507769691e+02   4.981513582929e+01 
5 1 -2.632930220130e+02   3.881402492845e+02   2.813065743068e+02 
6 1 -2.373206088716e+01   1.665798639947e+02   2.757399517404e+02 
7 1  1.305487015652e+02   3.287944210759e+02   2.227595309050e+02 
8 1 -4.404433721477e+02   1.619999772783e+02  -1.150546511551e+02 
8
Step 29000
1 1  2.158785898896e+02   1.621280549684e+02  -3.452214363513e+02 
2 1  1.374538621627e+02  -2.312007833319e+02  -1.311999395746e+01 
3 1  5.004194128745e+01  -2.487670805795e+01  -2.798164758258e+02 
4 1 -2.897027115486e+00  -8.083384109639e+01  -1.670561492111e+02 
5 1 -2.830177555267e+02  -2.580834823690e+02   6.595288161715e+02 
6 1 -3.073973055695e+02  -8.695124714722e+01   3.807862808546e+02 
7 1  3.677416680264e+01   6.608521499229e+02   1.763829040219e+02 
8 1  2.847150171828e+01  -1.034291825649e-01  -1.378403790271e+01 
8
Step 30000
1 1  2.873565060198e+02  -2.895613869952e+02  -1.096756994594e+02 
2 1  2.598245081449e+02  -7.726271484413e+01  -1.404150209329e+02 
3 1  1.780007322439e+02   1.765758016812e+02   1.909140504118e+02 
4 1 -3.367478102723e+02  -2.410665997414e+02  -9.435547297353e+01 
5 1 -1.879510533123e+02   1.145815897845e+02   3.435423108273e+02 
6 1  1.475365780508e+02   3.391962622501e+02   4.958849216437e+02 
7 1  7.708496514087e+01  -1.772756857742e+00   1.496335114781e+02 
8 1  1.880563017017e+02   7.985546428777e+01   3.166582277346e+02 
8
Step 31000
1 1  8.252534915122e+01  -2.572711575832e+02   2.036843630634e+02 
2 1 -6.232184625858e+01   2.887320182596e+00  -2.632881342949e+02 
3 1 -2.490734228631e+02  -5.579210823201e+01  -1.387046016984e+02 
4 1  2.847449036092e+01  -2.969596598673e+02   1.687883769934e+02 
5 1  8.317739310419e+01  -2.652474516899e+02   4.589080373294e+02 
6 1 -1.387473392125e+02  -1.974868461377e+02   2.175303902885e+02 
7 1  2.834606401207e+02  -1.161462669344e+02  -2.485361563346e+02 
8 1 -7.343035161213e+00  -1.610996858811e+02  -1.077823219262e+02 
8
Step 32000
1 1  3.602670565383e+02  -1.833831773477e+02   5.719114241911e+02 
2 1  2.942354420931e+02  -3.105138498614e+01   1.203696847867e+02 
3 1  1.283725239200e+02  -2.007798272697e+02   5.455975368089e+01 
4 1  3.347626043460e+02   1.230705656508e+02  -1.042116036128e+01 
5 1 -1.663030081317e+02  -5.251571673690e+02  -2.572455655114e+01 
6 1  6.906505292316e+01  -2.106320826673e+02  -1.041479261709e+02 
7 1  1.992492821223e+02  -6.930592799459e+01  -9.348596084544e+01 
8 1 -1.231529162572e+02  -2.840618690551e+02  -2.231872151897e+02 
8
Step 33000
1 1  4.126607332268e+02   5.158654833038e+01   1.207923158976e+01 
2 1 -1.824716846624e+02  -2.137584251079e+02  -2.816895482618e+01 
3 1 -1.754291603141e+02  -1.741921699803e+02   1.566194797706e+02 
4 1 -7.462529064912e+01  -4.444377540246e+01  -1.035509467877e+02 
5 1  7.447039822891e+01  -4.355982107975e+02   8.894766254507e+02 
6 1  5.315871524825e+02  -3.910808966348e+02   3.173089827785e+02 
7 1 -9.078915343188e+01  -6.896265353635e+02  -1.836061630867e+02 
8 1 -8.030260906767e+01  -2.140441936130e+02  -8.481145307291e+01 
8
Step 34000
1 1  1.322289448822e+02   3.496541067023e+02   3.137415262552e+02 
2 1  2.325057530731e+02  -4.764739737198e+02  -3.093045578600e+00 
3 1  5.096818705823e+01   1.314885920286e+02   6.088463953178e+00 
4 1  2.499041975091e+01  -1.160641776215e+02  -2.354013154426e+02 
5 1  2.379168066901e+02  -3.335547628913e+02   3.334251925869e+02 
6 1  1.247738645911e+02  -3.265223961798e+02  -3.670633282098e+02 
7 1  1.628555775764e+02  -1.385701056147e+02  -1.714022098130e+02 
8 1  2.075702194117e+02  -1.234960937692e+01   1.462675580912e+02 
8
Step 35000
1 1 -4.996397182424e+02   7.423754227433e+01   2.054860962661e+02 
2 1  2.982034412354e+02  -4.499893674866e+02  -1.979121377375e+02 
3 1 -1.106407673467e+02  -9.875489672978e+01   3.607927551317e+02 
4 1 -4.269757796760e+02   8.147788778607e+01  -2.638236961742e+02 
5 1 -1.265344642767e+02  -4.796564643996e+02   2.482164237253e+02 
6 1  4.434765480717e+02  -3.431619318201e+02   1.949375581412e+02 
7 1 -1.006579363794e+01  -3.183444992536e+02  -3.830023304540e+02 
8 1 -3.373828990281e+01  -3.821122306569e+02  -3.013625984494e+02 
8
Step 36000
1 1 -1.704150462100e+02  -6.259943185636e+01   3.043013268678e+02 
2 1  1.422033054553e+02   1.652034758474e+01  -6.020576230556e+02 
3 1 -9.204508180291e+01  -2.504673138664e+02   2.997601829719e+02 
4 1 -1.654457528230e+02  -7.626067566749e+01  -4.380041742522e+01 
5 1 -2.527734698341e+02  -1.952308434643e+02  -1.311497434141e+02 
6 1  4.951401078875e+02   3.805711943329e+02  -2.454071979610e+02 
7 1 -6.063210215237e+01  -2.220515968024e+02  -6.635454525017e+02 
8 1  1.573219872621e+02  -3.100347559580e+02   1.632364458380e+02 
8
Step 37000
1 1 -1.555467966050e+02   1.008536274323e+02  -1.890956933747e+02 
2 1  1.124988170035e+02  -1.931443509715e+02   1.225510646655e+02 
3 1  3.466375928296e+00  -1.699411079117e+02   1.272683721709e+02 
4 1 -9.294101875257e+01   1.289099780206e+02  -1.165530248065e+02 
5 1 -5.868748062891e+02   2.141182829729e+02   2.191130352199e+02 
6 1 -2.248594590077e+02   3.258567008202e+02  -4.002727887535e+02 
7 1  4.313558842269e+02  -2.282064630551e+02   7.570138763882e+01 
8 1 -1.422359240957e+02  -4.082049094462e+02   3.467233994474e+01 
8
Step 38000
1 1 -2.740764509698e+02  -1.133114418515e+02  -3.749321880461e+02 
2 1 -2.825544794937e+02  -4.317322441729e+02   3.532580845900e+02 
3 1 -4.325122964512e+02  -1.115772327029e+02   3.284563278767e+02 
4 1 -2.479522959970e+02   4.148085597558e+02  -7.202324242417e+02 
5 1 -2.649663429944e+01   4.763857685661e+02   3.059270264084e+01 
6 1 -2.060762416704e+01  -6.226026043968e+01  -4.319351263210e+02 
7 1  2.569484299391e+01   8.086713388711e+01  -2.368109333612e+02 
8 1  1.215618114314e+02  -1.192086452806e+01  -2.201715566556e+01 
8
Step 39000
1 1 -2.482494828414e+02   3.496867676738e+01   1.508430462046e+02 
2 1  9.786430116213e+01  -4.855544300486e+02  -3.409686951940e+02 
3 1 -4.125358444165e+02  -6.783335750737e+01   6.542963499807e+02 
4 1 -1.621472503245e+02   2.071122960186e+02  -1.820546048483e+02 
5 1 -2.479159370948e+02   4.583887418910e+02  -2.801202858182e+02 
6 1 -1.320300031887e+01   5.393767899968e+02  -4.418203589579e+02 
7 1 -5.601967304363e+02  -1.911630485557e+02  -1.647966858285e+02 
8 1 -2.781619263229e+01   1.294926205550e+01  -1.432583373506e+01 
8
Step 40000
1 1 -2.347786237021e+02  -4.963744035532e+02  -5.343947289580e+02 
2 1  3.201943840289e+01  -1.698598935373e+02  -2.623048420151e+02 
3 1 -3.826654302867e+02   2.100649947125e+02   7.077893234067e+02 
4 1  9.978864527389e+01   4.553816064363e+02   4.247125075390e+01 
5 1 -1.804140480829e+02   3.886278721905e+02  -3.648144845042e+02 
6 1  8.562279672313e+01   4.338729335861e+02  -1.103996060768e+02 
7 1 -3.735514800495e+02  -3.183602180331e+02   2.720203763530e+02 
8 1 -2.290420408863e+02   3.683323741568e+02  -1.132740463009e+02 
8
Step 41000
1 1  5.964541793536e+02  -3.967821969134e+01   1.005233247259e+02 
2 1 -1.737420467079e+02   2.510401717021e+02  -1.568240519427e+02 
3 1 -3.269570162007e+01  -9.980481440281e+01   2.818931691840e+02 
4 1  3.192486732966e+01   2.079686026111e+02   1.625465796435e+02 
5 1 -3.561630718553e+01   2.709816924973e+02  -9.428598817657e+01 
6 1  1.291302194934e+02   3.316957085340e+02  -1.326008021628e+02 
7 1 -3.918601792053e+02   5.233951191753e+02  -3.015594691817e+02 
8 1 -6.794424439149e+02   2.394000276283e+02   5.368860994541e+02 
8
Step 42000
1 1 -6.748067803484e+01  -3.407433890110e+02  -3.672104173391e+02 
2 1  4.077911758442e+01   2.550705844549e+02   2.257407745938e+02 
3 1  4.464053597584e+01   2.059976314763e+02  -1.628179930710e+02 
4 1 -6.825108389197e+01  -9.690765416337e+01   3.221231859013e+02 
5 1 -2.131328385539e+02   5.355279432138e+01   1.581573779862e+02 
6 1 -2.283660195345e+02   2.651985897696e+02   7.169275111588e+00 
7 1 -5.227205444624e+01   1.309681454901e+02   7.304446198810e+01 
8 1 -5.206510992936e+02   3.317180156581e+02   2.358588452690e+02 
8
Step 43000
1 1 -3.729258155066e+01   1.838940707597e+02   2.905886737699e+02 
2 1  4.368017723797e+02   3.799188768471e+02   6.379954399463e+02 
3 1  8.314371270972e+01   3.059422206537e+02  -2.573113351293e+02 
4 1  4.656200394967e+02  -7.836442015326e+01  -3.078031577575e+02 
5 1 -2.997901936790e+01   1.489066980967e+02   1.491106699719e+01 
6 1 -2.598845808655e+02   2.907609378146e+02  -1.208147902845e+02 
7 1 -4.615468717039e+02  -2.063416078281e+02   2.055729954496e+02 
8 1  2.001857724526e-01   1.877509421563e+02   1.076918223915e+02 
8
Step 44000
1 1 -3.884006720456e+01  -1.366240462944e+02  -1.195080405369e+02 
2 1  2.524114687343e+02   5.308207514439e+02  -1.206634528755e+02 
3 1  1.523359594050e+02   1.972040760790e+02   3.945523389146e+02 
4 1  1.625504647563e+02  -1.082031929927e+02  -6.892082636842e+01 
5 1 -3.664878406950e+02   4.687781378037e+01   4.022916900572e+02 
6 1  1.888511532103e+02   9.174980309888e+00   3.313822527566e+02 
7 1 -5.722649143328e+02   1.393694734371e+02   4.416380438596e+02 
8 1  3.308207885735e+02  -7.406463814271e+01   7.166572009896e+02 
8
Step 45000
1 1  1.547225667654e+02   2.020991056126e+02   1.088600754796e+02 
2 1  1.714131328676e+01   3.192725672763e+02  -3.737232214383e+02 
3 1  4.491971091828e+02   2.314000148355e+02   2.720345651203e+02 
4 1  2.475263872069e+02   1.877468285628e+01  -7.742544973626e+01 
5 1  7.057979253659e+01   1.531742810790e+02  -2.066040981874e+02 
6 1  3.398086554549e+01  -1.294113986840e+02   3.382022942795e+02 
7 1 -1.799841604403e+02  -3.237587120992e+02   3.356127845739e+02 
8 1  3.083870700267e+02   6.102106674190e+01   2.835075904805e+02 
8
Step 46000
1 1  4.983014707098e+02   3.392903145570e+02   2.416164762556e+02 
2 1 -1.823853664415e+02   4.409864516062e+01   1.134065042759e+02 
3 1  8.741255908046e+01  -3.574585051200e+02  -2.662665021555e+02 
4 1  4.767882994354e+00  -2.085165220285e+02   6.182350951787e+02 
5 1  3.984328936897e+02  -9.808749241370e+01  -8.419689216045e+01 
6 1 -1.953711601770e+02   4.866392495760e+01   2.924914609477e+02 
7 1  2.597879414814e+02  -1.985762602498e+02   2.449980454568e+02 
8 1 -1.776137687305e+02   3.778621781386e+01   5.361487291418e+02 
8
Step 47000
1 1  1.040113151703e+02   3.068156576650e+02  -7.178827615013e+01 
2 1  1.238550123982e+02   1.035072738042e+02   1.797368733554e+02 
3 1  2.118834358772e+02  -3.710933111980e+02  -4.235250638499e+02 
4 1  5.088125061219e+02  -1.277726460551e+01   4.265060446533e+02 
5 1  2.257161321496e+02  -1.978096437261e+02  -1.398735191086e+01 
6 1  3.313243377161e+02  -4.055630154330e+02  -4.304444006215e+01 
7 1  3.703363817122e+02   7.148005067224e+01   1.076811918415e+02 
8 1 -5.839555289225e+01  -8.870527202423e+01   1.655796449651e+02 
8
Step 48000
1 1  4.130972817631e+02   2.030007538782e+02  -1.288091791158e+02 
2 1  1.649064134612e+02   1.951944759645e+02   3.838579372269e+01 
3 1 -3.087201374216e+01   1.141000407065e+02  -1.314749562353e+02 
4 1  5.437581724453e+02  -4.930244045396e+02   2.321575795557e+02 
5 1  1.749522071628e+02   7.678161172658e+01   4.346314164636e+02 
6 1  2.544529197462e+02  -1.172377981924e+02   4.008809770649e+01 
7 1 -3.368589587224e+02   5.265468966059e+01   3.070980023749e+02 
8 1 -6.689976116798e+01  -1.422777476959e+02   1.646096285578e+02 
8
Step 49000
1 1  7.323894824277e+01  -2.043760497737e+01  -3.297441716314e+02 
2 1 -4.513211610605e+01   1.220528943347e+02  -1.892133473504e+02 
3 1  4.478368137102e+02   1.599444897762e+02  -1.578364344954e+02 
4 1 -8.901538856086e+01  -6.652756461337e+02  -5.195098854033e+01 
5 1  1.313755189259e+02  -5.488516742759e+02   1.050523937729e+02 
6 1  3.227737393215e+02  -4.113523939393e+01   3.458185487758e+02 
7 1 -6.443638968106e+01   3.291327329686e+02  -2.659207067455e+02 
8 1  2.757338960409e+02   4.413544737038e+01  -4.072470954250e+02 
8
Step 50000
1 1  5.800677485707e+02   1.553269802712e+02   8.057048805329e+01 
2 1 -1.293704983598e+02   1.160164673783e+01   7.508609654762e+01 
3 1  4.583882724836e+02  -5.444729408216e+02  -1.481842631859e+02 
4 1  1.297638592334e+02   3.457799255750e+02   3.574188456068e+02 
5 1  2.966980797380e+02  -1.788187030241e+02  -7.503570733656e+01 
6 1 -1.580368917767e+02  -1.861761407062e+02   4.690058909634e+02 
7 1 -1.888218271363e+02   2.175326780079e+02  -3.911287465635e+02 
8 1 -2.952984209364e+02   1.498484387713e+02  -7.524250199800e+02 
8
Step 51000
1 1  1.639248417680e+02  -3.564436749128e+01   2.800021649322e+02 
2 1 -4.468376762958e+02  -2.655098071087e+01   2.512646952316e+02 
3 1  8.887226637118e+01  -5.659947263205e+01  -8.717876256373e+02 
4 1  2.784568506657e+02  -1.894570137966e+01   3.230601461203e+00 
5 1  2.554624028394e+02  -1.770336198131e+02  -1.881990591828e+02 
6 1 -3.073921009265e+01  -3.994458006811e+02   7.600859873303e+01 
7 1  2.660514598137e+02   1.786124846294e+02   1.551603289969e+02 
8 1 -7.218631844810e+01   3.551616578696e+02  -5.643371282931e+02 
8
Step 52000
1 1  3.737133324903e+02  -1.236506892869e+02  -1.714962933009e+02 
2 1 -1.942783765967e+02   1.343833774080e+02   5.492926846665e+01 
3 1  1.571408556443e+02   3.974567880931e+02  -4.857631025560e+02 
4 1  1.253743563769e+01   3.467390770873e+02   7.107204539904e+01 
5 1 -1.266672884951e+02   9.143652385345e+01  -2.766335617293e+02 
6 1  1.780378741084e+02  -2.497499092942e+02  -1.320292381907e+02 
7 1  5.754642064555e+01   3.420523357649e+01   1.079381803230e+02 
8 1 -5.167472200149e+01  -2.337355865636e+01  -5.480090621602e+02 
8
Step 53000
1 1  1.117612774329e+02  -1.629132103763e+02   2.470980203652e+02 
2 1 -5.427581514139e+02   1.905039025505e+02  -1.876804817154e+02 
3 1 -3.604844845953e+02   1.416861178300e+02  -3.447802562390e+01 
4 1 -3.370463529915e+02  -3.215013056100e+02  -3.070568701603e+02 
5 1 -2.713254482878e+02  -2.104007192587e+02  -3.847800959887e+02 
6 1  2.867867443386e+02   1.151473317830e+02  -5.332498363807e+02 
7 1 -1.368093161379e+02   1.979278370212e+02   9.648566609734e+01 
8 1  3.749036772425e+02  -4.676712816042e+01  -1.112073031439e+02 
8
Step 54000
1 1  2.240279798273e+02  -1.067291783418e+02   1.280192017253e+02 
2 1 -3.337344102734e+02   4.121892384133e+02  -1.210621401511e+02 
3 1 -8.736578777207e+01   5.490276317016e+02  -1.500901279419e+02 
4 1 -6.045825849487e+02  -1.891703706105e+02  -2.072367518088e+02 
5 1 -1.595129673177e+02  -3.034093347257e+02  -1.408737806479e+02 