8
Step 0
1 1 -1.617009810547e+02   3.499836431780e+02   9.670322036942e+01 
2 1  6.579416937860e+01   2.280060486291e+02  -1.582839607652e+02 
3 1 -6.135575297045e+01   6.867441165061e+01  -2.235871020339e+01 
4 1  3.367717746942e+02   6.945229931662e+01   5.895565159453e+02 
5 1 -1.941750986483e+02  -3.959948441136e+02   1.451362027938e+02 
6 1 -3.561674960723e+02   2.371270333453e+02   4.390690026849e+01 
7 1  6.398257805213e+01  -3.981415810091e+02  -1.052703156695e+02 
8 1  3.094942320484e+02  -9.294175695775e+01   8.728695809416e+00 
8
Step 1000
1 1  2.804958674635e+02  -1.080957415577e+02  -1.139285204717e+02 
2 1  1.103959772031e+02  -5.578118859206e+02   3.459894739605e+02 
3 1 -3.784391661552e+01   5.200916811377e+01   5.025083823754e+01 
4 1  6.685730383949e+01  -3.804916569563e+02   1.221403555956e+02 
5 1  2.899444208104e+02   2.065527446669e+02   1.305687149849e+02 
6 1  3.668593668940e+02  -1.123195896199e+02  -1.216859783160e+02 
7 1  1.387526758340e+02  -1.454315177376e+02  -2.002864491538e+02 
8 1  2.271487653951e+02  -3.788614550894e+01  -1.166257883471e+02 
8
Step 2000
1 1 -2.217181561119e+02   2.913674878037e+02  -2.387307562083e+02 
2 1  2.353582145901e+02  -1.015692578879e+02  -1.670973479368e+02 
3 1  2.672013751346e+02  -1.867729789079e+02   2.693486386695e+02 
4 1  3.964572360324e+02  -1.773380142386e+02  -3.111208430712e+02 
5 1  5.651129603962e+01  -2.231075369454e+01   4.341435998877e+02 
6 1  2.088915074991e+02  -1.226628151420e+02   1.656827456823e+02 
7 1  1.039009035866e+02  -7.821576844930e+01  -3.055778639727e+02 
8 1 -3.235130454435e+02  -5.926595455291e+01  -2.088850690700e+02 
8
Step 3000
1 1  3.259540231262e+02  -6.119257576126e+02  -3.280072809696e+02 
2 1  4.828697664286e+02  -2.221019320007e+02  -9.124308773760e+01 
3 1 -2.607264786806e+02  -3.774500559911e+02   1.064332353474e+02 
4 1  2.542356380144e+02   2.190850311179e+02  -3.690137357225e+02 
5 1 -2.115371137081e+00  -2.049952486157e+02   8.655079244047e+01 
6 1  1.968024363892e+02  -5.542735817158e+01   1.420496479824e+02 
7 1  1.416275776283e+02  -2.603880736706e+02  -3.360360003676e+02 
8 1  4.710956980117e+02  -5.236261447525e+02  -4.340548605327e+01 
8
Step 4000
1 1  2.821911357097e+02   3.156799059488e+02  -6.567444122133e+01 
2 1  4.213724775291e+02  -3.881056447533e+02  -5.739191496480e+02 
3 1 -1.278983158602e+02   2.877442427255e+02  -9.591381552994e+01 
4 1  3.202694125531e+02  -1.963664120375e+02   1.320503719943e+02 
5 1  5.862183309658e+02  -1.373549682866e+01   1.922315782752e+02 
6 1  1.873338996175e+02   1.088409398483e+02   2.200250700275e+02 
7 1 -8.101176033466e+01  -1.477207043574e+02  -3.716021283233e+02 
8 1 -2.135608438444e+02  -1.087256286610e+02  -4.929029546322e+02 
8
Step 5000
1 1  2.641709821998e+02  -2.484954729527e+02  -1.437454458964e+02 
2 1  2.756133179787e+02  -2.359423233886e+02  -4.661442841504e+02 
3 1 -2.405016107984e+02   2.269602064381e+02   1.482592955423e+02 
4 1  5.173323542875e+02  -1.152421080992e+02  -3.083371786972e+02 
5 1  1.194153896583e+01   3.052468791502e+01  -4.883779760749e+01 
6 1  2.267521330242e+01  -1.342057387978e+02   5.931872326313e+01 
7 1  2.730907009267e+02  -3.771669350892e+02  -1.855533591768e+02 
8 1  4.350828119599e+01  -1.095732406510e+01  -3.209364051559e+01 
8
Step 6000
1 1  2.614381272889e+02  -2.273684268183e+02  -1.074948035635e+02 
2 1  4.477817286994e+02   7.526871313407e+00  -2.537911308389e+02 
3 1 -5.584213677409e+02   5.809800745313e+01  -2.698879416090e+02 
4 1  5.260399963480e+02   1.367495142307e+02  -2.951203774441e+02 
5 1  1.409748105469e+02   2.087403049998e+01   2.088076626292e+02 
6 1  7.077659640178e+01   6.599350500676e+01   8.902661789423e+01 
7 1 -1.961113277995e+02  -1.833099725973e+02  -3.217650170354e+02 
8 1 -1.529319445389e+02   1.624451620088e+02  -7.974161844248e+01 
8
Step 7000
1 1 -7.818653877872e+01   1.089440606013e+02  -9.761928465545e+01 
2 1  7.719665221638e+01   9.087912326018e+01  -5.569523033876e+02 
3 1 -1.959721766044e+02   3.103769072846e+02  -2.595412415178e+02 
4 1 -7.500487160524e+01  -3.473411264254e+01  -5.869618355848e+02 
5 1  4.018173612157e+02  -2.772061572414e+02   2.168475498448e+02 
6 1 -1.500884946160e+02  -2.039473357708e+02   3.091884820378e+02 
7 1 -1.690292319624e+01  -7.943277743965e+01   2.324296474646e+01 
8 1 -1.613166737369e+02  -3.102860541383e+01   2.281649133709e+02 
8
Step 8000
1 1  2.761467142324e+02  -1.868334810781e+02   3.246625238397e+02 
2 1  7.569744337998e+00   6.566472174241e+01  -3.517918431151e+02 
3 1 -5.311445598603e+02   3.618998872626e+02  -1.789941986516e+02 
4 1  1.164629465592e+02   1.604866797939e+02  -2.524328985018e+02 
5 1  2.514613332486e+02   5.103826089568e+02   2.603785841376e+02 
6 1 -9.100780904474e+01   2.389474580447e+02   3.611127548521e+02 
7 1 -3.927072115630e+01   8.652146758800e+01  -4.185777801049e+02 
8 1 -1.501152130616e+02  -3.686878544092e+02   5.653146224477e+01 
8
Step 9000
1 1 -2.481493796193e+02   4.099020400391e+02   2.802017589275e+02 
2 1  8.216017257580e+01   4.519445680187e+02  -2.418649983678e+02 
3 1 -7.495942496158e+02   1.133800572433e+02  -5.890362308831e+02 
4 1  1.840783722508e+02  -2.634044422368e+02  -3.749731586956e+02 
5 1 -2.811221456690e+02  -1.212799901534e+02   1.630368583591e+02 
6 1  2.120040366630e+02   2.114339016953e+02   5.827351980882e+02 
7 1 -2.492653664594e+02  -2.112559403239e+01   8.557913773952e+01 
8 1 -1.856471843086e+02   1.413865530575e+02   3.838148108216e+02 
8
Step 10000
1 1  9.088721211715e+00  -2.804445570973e+02   2.685582856078e+02 
2 1 -4.909700546839e+02   2.500710259263e+01   4.064824928871e+01 
3 1 -2.497150836650e+02   2.198619892240e+02  -2.661774290326e+02 
4 1 -3.027274450513e+02   2.399931456759e+02  -4.075354236873e+02 
5 1  3.979534835917e+01  -1.233398401425e+01   4.575332654662e+00 
6 1 -1.428334730047e+02   2.736879104113e+02   3.162992488249e+02 
7 1 -9.984315163416e+01  -1.438179566543e+02   1.945254362787e+02 
8 1 -1.246477563576e+02  -1.893363729063e+02   2.736031627031e+02 
8
Step 11000
1 1 -1.580775162669e+02   4.936368880215e+02   2.821059754774e+02 
2 1 -1.207275101885e+02   3.073594100527e+02   2.147438946444e+02 
3 1 -2.814323431953e+02  -9.406712867939e+01  -5.018393788465e+02 
4 1 -4.824848785138e+02  -1.453472458939e+02  -2.175395975526e+02 
5 1  5.028184898339e+01   1.861733689754e+01   1.545427004502e+02 
6 1 -2.851712385326e+02  -1.112650235730e+02   3.759680996579e+02 
7 1  8.037267415189e+01   2.569281251387e+02   2.282478239071e+02 
8 1 -1.289732917702e+02   3.147878104497e+02   3.415132425190e+02 
8
Step 12000
1 1 -4.801961385688e+02  -1.384979843786e+02   2.328917392547e+02 
2 1 -4.097574743085e+02   2.308422729126e+02   1.430095377009e+02 
3 1 -2.335958149014e+02   3.276831657639e+01   1.376664062442e+02 
4 1  1.213051625440e+02   8.819342525129e+01  -6.677322927344e+01 
5 1 -6.732339804610e+01   2.320042977690e+02  -4.922083551795e+01 
6 1 -1.822901971518e+02   3.936598772025e+01  -9.742141759841e+01 
7 1 -1.117289242316e+02  -1.848918772161e+02   1.899664168155e+02 
8 1  1.299591010324e+02  -2.026708440822e+02   6.110076431513e+02 
8
Step 13000
1 1 -1.488782846077e+02   4.504449317724e+02   4.645416125443e+02 
2 1 -1.237429515255e+02   1.055531351669e+01   6.731640240687e+00 
3 1 -1.248295343777e+02  -2.429623978211e+02  -2.234527625757e+01 
4 1 -3.360386808493e+02  -8.899236020351e+01  -2.558608123654e+01 
5 1  3.271025383206e+01  -1.591855101419e+02  -5.004254302489e+01 
6 1 -2.830932192455e+02   2.475584195736e+02   1.248575569361e+01 
7 1 -1.761264496209e+02  -1.334723122402e+01   9.167178975518e+01 
8 1  1.924097982783e+02   1.271527188882e+02   1.793893857519e+02 
8
Step 14000
1 1 -3.053674415740e+02   4.068926939711e+01   1.027363334167e+02 
2 1 -3.141179274130e+02   2.212438343823e+01   3.974518339714e+01 
3 1  1.301095912332e+02  -1.085917810212e+02  -1.535284616551e+02 
4 1 -2.355961813441e+02  -2.047919355992e+02   2.037559286635e+02 
5 1 -4.366376824448e+01  -1.297434940361e+02  -1.336839648685e+02 
6 1 -3.379919903357e+02  -3.846799502589e+02   1.360939047075e+02 
7 1  4.749666000477e+01  -5.168109399494e+01  -3.309858543327e+02 
8 1  1.038466258078e+02   1.282154298794e+02   5.516584265075e+02 
8
Step 15000
1 1  3.106410780026e+02   7.015468058540e+01   1.797891003269e+01 
2 1 -5.580561624566e+02   1.886381085424e+02   4.278819475312e+02 
3 1  3.225620664849e+02  -2.801938067166e+02   2.135400993224e+02 
4 1 -1.073866827996e+01  -1.767381290820e+02  -4.010303162260e+01 
5 1 -1.683872744965e+02   2.234258811335e+02  -7.694675338654e+00 
6 1 -2.109924492215e+02  -4.117746088745e+01  -2.332824276038e+02 
7 1  1.641514177902e+02  -1.040514116608e+01  -3.954284536533e+02 
8 1  3.033359032174e+02   2.504698333416e+02   3.525578036690e+02 
8
Step 16000
1 1 -2.187232218361e+02   4.941097353811e+02  -1.393210465466e+02 
2 1 -1.282126942464e+02  -1.202026129062e+02   2.927021754642e+02 
3 1  7.829972941167e+01  -3.107291042599e+02  -2.135980088458e+01 
4 1 -2.754840760267e+02   3.617951753210e+01   2.460722011307e+02 
5 1  1.470254081188e+02  -4.466524832335e+02   2.587915882133e+02 
6 1 -4.359701102911e+02  -3.789806771885e+01  -2.140086237710e+02 
7 1  1.177828402140e+02  -2.612357584113e+02  -1.572743899512e+02 
8 1  4.555230824027e+02   1.431140374884e+02   2.717002006041e+02 
8
Step 17000
1 1  2.777315798827e+01  -1.171274583504e+02  -2.021395904303e+02 
2 1 -8.185329753155e+01   2.687725788318e+01   3.309471607873e+02 
3 1  1.955441583345e+02  -2.464290575332e+02   4.101012066875e+01 
4 1 -1.546598657356e+02  -1.144862804666e+02   3.594207695385e+02 
5 1  3.118701981466e+02  -2.369665223317e+02  -5.686483496073e+02 
6 1 -4.350285864867e+02   3.596202373598e+00  -5.483808113080e+02 
7 1  1.508356953931e+02  -2.387909685491e+02  -4.815433634912e+02 
8 1  3.780932526751e+02  -2.693420207150e+02   3.134214165665e+01 
8
Step 18000
1 1  1.067575640238e+02   3.198370129725e+01  -2.398419306939e+02 
2 1 -2.557375861358e+02  -1.178984853501e+01  -4.534629586422e+02 
3 1  5.098284525518e+02  -8.088804776773e+01   1.652798975463e+02 
4 1 -2.279594552386e+02  -1.229493769438e+02   3.875490279090e+02 
5 1 -3.097977476317e+02  -1.424558541977e+02  -6.180042578000e+01 
6 1  1.195598945742e+02  -4.437701523843e+02  -3.547101957766e+01 
7 1  2.513727084949e+02   1.048234623716e+02   1.956241917426e+02 
8 1  2.617674026826e+02   4.123592729898e+01  -2.381696805792e+02 
8
Step 19000
1 1 -9.580435151785e+01  -1.370065074486e+02  -1.826225124344e+02 
2 1 -2.751402191942e+02  -2.455882429925e+02   2.944891680204e+01 
3 1  2.932084856116e+02   2.222368216612e+02   5.692408686124e+01 
4 1  3.190133457957e+01   2.997064428088e+02   2.395626129075e+01 
5 1  4.411603122095e+02  -1.249634176293e+02  -2.753343032521e+02 
6 1 -2.456830084103e+01  -5.496508217648e+02  -4.980560413632e+02 
7 1 -6.632361029770e+01  -2.763877167033e+02  -1.134433265829e+02 
8 1  2.394577383359e+02  -5.129375353515e+01  -1.651049352961e+02 
8
Step 20000
1 1  2.409204513143e+02  -8.040775511339e+01  -3.458950573377e+02 
2 1 -5.963033302041e+02   1.641998575144e+02   3.052690438095e+01 
3 1  3.081282240843e+02  -1.863804303705e+01  -1.617786188667e+02 
4 1 -5.711304557581e+01   1.399214184021e+02   4.371143811566e+02 
5 1  4.065011685969e+02   2.888554992952e+02  -2.258554348700e+01 
6 1 -4.296643362890e+02  -7.480174990951e+01   6.432641927106e+01 
7 1  1.718091276856e+02  -4.383673974431e+02  -4.794621664786e+02 
8 1  1.118037344317e+02   1.669214446744e+02   1.501477473625e+02 
8
Step 21000
1 1 -5.612119033071e+00   3.134390952730e+02  -2.068167754422e+01 
2 1 -3.555392570139e+02  -7.198631481380e+01  -4.193953634701e+02 
3 1  1.905045270813e+02  -3.479037296025e+02  -1.849649452861e+02 
4 1  2.118119341591e+02   1.239299856181e+02   2.201469454486e+02 
5 1  1.050713813968e+00   2.389468043996e+02  -3.965355470321e+02 
6 1 -2.621108261110e+02  -4.371099655569e+02  -9.414235388731e+01 
7 1  1.470767682900e+02  -3.324224667929e+02  -2.126176874012e+02 
8 1 -1.441218353579e+02  -2.437653254523e+02   8.292978367773e+00 
8
Step 22000
1 1  3.434376346953e+02   1.350118053513e+02  -2.791683683467e+02 
2 1  2.372978794709e+02   9.172391853130e+00  -1.959891977207e+02 
3 1 -3.604246562999e+02   5.500121139916e+02  -2.004651662145e+02 
4 1  1.930915459251e+02   2.912424611460e+02   4.130247373005e+02 
5 1  4.476079479188e+02  -2.348144976062e+02   7.143059866008e+01 
6 1 -1.838102284094e+01   1.937816949877e+02  -2.107834275557e+02 
7 1 -3.058131482617e+02   3.359705895794e+02   3.436248456129e+01 
8 1  2.621425777327e+01  -2.943754437425e+02   2.363615933743e+02 
8
Step 23000
1 1 -2.510393397167e+02   1.717616575620e+02   2.297405289872e+02 
2 1 -3.583392563821e+02   2.138349194700e+02  -4.693516479991e+02 
3 1  3.873518053371e+02   2.658559359487e+02   8.050918991055e+01 
4 1 -6.521951195865e+01  -1.004538659756e+02   3.431807500222e+02 
5 1  3.483811619777e+02   1.746425492460e+02  -4.079119824806e+02 
6 1  3.578575977532e+01  -8.899320948950e+01   1.688067651211e+02 
7 1 -9.930714559036e+01  -3.305017252490e+01   2.480025548556e+02 
8 1 -1.211617041582e+02  -1.471794001280e+02   2.380342649723e+02 
8
Step 24000
1 1  1.118037135067e+02   3.792346708186e+02   9.615816509968e+01 
2 1 -3.529822555401e+00   3.093625003653e+02   1.026685325456e+02 
3 1  1.290004900897e+02   3.087356831409e+01  -1.674221938967e+02 
4 1  4.724705781881e+01   1.745264860642e+01   2.113338436544e+02 
5 1  2.539552786837e+02   2.458249191375e+02  -1.841578823671e+02 
6 1  1.582018735247e+01  -7.876026275682e+01  -7.446908024946e+01 
7 1 -7.283825230035e+01   3.133547747026e+02  -5.169403945148e+01 
8 1 -4.041792890408e+02  -6.981999028683e+01   9.476967016518e+01 
8
Step 25000
1 1 -1.058436069368e+02   2.249677731258e+02   3.317959478097e+01 
2 1 -3.146647439635e+02  -1.827117389903e+02  -7.049467946428e+01 
3 1 -8.872926729098e+01   2.156656785490e+02  -2.016865378303e+02 
4 1  4.415746667299e+01   3.126937315890e+02  -5.028584473331e+01 
5 1  1.130324606197e+02   9.278464649078e+00   1.007049630260e+02 
6 1 -9.391762227675e+01   8.912703069565e+01   1.851075843718e+02 
7 1 -4.896087566798e+01  -3.439163248123e+01   2.024770850505e+02 
8 1 -3.007890593698e+01  -2.405354019479e+02   5.571815760672e+02 
8
Step 26000
1 1  1.934317332494e+02   6.644009613491e+02   4.029678449132e+02 
2 1  3.023362878820e+02   3.227268421464e+02  -1.229989800235e+02 
3 1  4.985826575105e+02  -6.106105326023e+01  -2.014387588450e+02 
4 1 -6.246621677356e+01  -9.007137858200e+01   1.379533379206e+01 
5 1  2.921733745514e+02   1.897478607910e+02  -2.192861920948e+02 
6 1 -2.009795504133e+02   1.723419618759e+01   2.927880261879e+02 
7 1  2.373717907146e+02   4.435353098837e+01   3.337851573234e+02 
8 1 -2.400429033706e+02   5.214509100166e+02   3.008805784116e+02 
8
Step 27000
1 1 -2.862709179861e+02  -2.692116658776e+02   2.095923971864e+02 
2 1  1.249115588059e+01   1.083841471053e+02   9.354763785970e+01 
3 1 -1.760452117447e+02   2.827481288941e+02  -2.622318657989e+02 
4 1  1.862906913602e+02   4.865948707327e+02   1.701574545311e+02 
5 1  2.786039674944e+02   2.860892159216e+02   1.348685104718e+02 
6 1  1.399911389231e+02  -1.642106746894e+01   3.700695956293e+02 
7 1  4.428651329412e+02   3.366486112747e+02   2.725455128898e+02 
8 1 -2.658166022960e+02  -1.887106247545e+02   3.734654002489e+02 
8
Step 28000
1 1  2.150478367535e+01   2.772448267538e+02   5.088776009257e+02 
2 1  2.164852041506e+02   8.159227923387e+01  -5.751926773689e+01 
3 1  1.673774078479e+02   7.049808102992e+01  -9.458679628100e+01 
4 1  2.186799105395e+02  -2.294596615021e+02  -2.266177097985e+02 
5 1  4.691543137805e+01  -1.019016529722e+02  -2.256613844639e+02 
6 1  9.597313598750e+01  -9.143395888892e+00   3.754364548298e+02 
7 1 -3.119220772421e+02   2.460441853220e+02  -1.908005074339e+02 
8 1  2.703900235176e+01  -1.179868558307e+02  -7.149879236902e+01 
8
Step 29000
1 1  2.841492679077e+02  -2.583246119782e+02   6.545644998544e+01 
2 1  3.309525864989e+01   9.012841622203e+01   2.153377576206e+02 
3 1  5.433963613762e+01   7.427394081269e+01  -3.545021995268e+02 
4 1 -9.389990756951e+01  -4.813041518047e+01  -1.046810063833e+02 
5 1  4.057720210560e+02   5.692004835780e+02   5.946904803345e+01 
6 1  1.047160032236e+02  -2.202243866855e+01   4.981881852152e+02 
7 1  3.166145707044e+02  -2.151867441305e+02   2.736567540693e+01 
8 1 -3.376226028700e+01   6.685038470073e+01   2.183321200467e+02 
8
Step 30000
1 1  1.386789575478e+02   1.458206174751e+02   4.248992862339e+01 
2 1 -4.318539717073e+00  -2.471758418149e+02   7.618433024010e+01 
3 1 -2.342839134126e+02  -3.194682806385e+00  -4.691758998979e+02 
4 1  3.778747350775e+02  -1.971325046903e+01  -2.038704987957e+02 
5 1  3.391893692308e+02  -4.471989910244e+02   3.472597885768e+02 
6 1 -4.086411336560e+02  -1.213092293754e+02   2.520224333309e+02 
7 1  5.722428280776e+02   3.522944346599e+02  -1.023714081686e+02 
8 1  6.621233699353e+01  -6.994137649295e+00  -4.288476298697e+01 
8
Step 31000
1 1  6.399164434625e+01  -3.748058762534e+02   3.334017141935e+02 
2 1  3.726776890357e+02  -1.156982230481e+02   3.738531652780e+01 
3 1  2.282771979787e+02  -5.332160908988e+01   2.741336752435e+02 
4 1  7.902217100042e+01  -7.438154458512e+01  -6.566989489941e+02 
5 1  1.184067217864e+02  -4.601293733676e+02  -2.290443649149e+02 
6 1  9.061855575104e+01   2.821530137233e+02   9.505758862825e+01 
7 1  1.139839322733e+02   4.202854564900e+01  -2.596493345643e+02 
8 1  1.944960288824e+02   1.374005122215e+02  -1.711530102785e+02 
8
Step 32000
1 1  3.653710099639e+01  -5.060294936116e+02   8.299252362977e+01 
2 1 -1.256360528651e+02   3.067828919418e+01  -9.044536311492e+01 
3 1  1.024544925389e+02  -2.447419776394e+02  -6.159722406237e+01 
4 1  3.583361503376e+01  -5.456394399395e+02  -9.592236024432e+01 
5 1  1.250880797833e+02  -2.965829553050e+02   1.770883666757e+02 
6 1 -1.068262004245e+02  -9.871787387693e+01   7.875846726100e+01 
7 1  2.254844845415e+02  -7.310352165855e+01  -5.412824120809e+02 
8 1 -2.680544893548e+01  -3.354904789636e+01  -4.351040634587e+02 
8
Step 33000
1 1  3.636447241275e+02  -2.169384620416e+02   2.332189882621e+02 
2 1  3.803366026146e+02  -7.023802406755e+01   4.201980666723e+02 
3 1  2.766677275939e+02  -1.491882153705e+02  -3.844063665912e+02 
4 1  4.561996177779e+02  -3.535030453441e+02  -2.846173871151e+02 
5 1 -2.544889131843e+02  -3.374644751198e+02  -1.831795977490e+02 
6 1 -3.082407719758e+02  -7.107371171985e+01  -5.722430643751e+01 
7 1  4.723471894016e+02   6.197589083608e+02  -1.455400817144e+02 
8 1  1.309754105174e+02  -1.944692372433e+02  -3.815055605349e+02 
8
Step 34000
1 1  2.550455002446e+01  -2.303999864591e+02  -1.129151153113e+02 
2 1 -1.010673813916e+02  -1.414804349971e+02   8.706333181178e+01 
3 1 -1.655877542332e+02  -2.972742098033e+02   2.159248586792e+02 
4 1  5.264677946921e+00  -2.792854142230e+02  -4.535613739062e+02 
5 1 -1.717785237340e+02  -3.176997772280e+02   3.148510645735e+02 
6 1  1.398634062837e+02  -5.847406408768e+01   3.297093797423e+02 
7 1 -7.220975741483e+01   2.214593260308e+01  -4.021515270716e+02 
8 1  1.893388414979e+02   5.600220091914e+00  -4.080350023139e+02 
8
Step 35000
1 1 -3.588154687223e+01  -1.385423993824e+02   3.581951594857e+02 
2 1 -1.617574497364e+01  -6.827137283706e+01  -2.692479829158e+02 
3 1 -6.264556435930e+01  -8.800486571085e+01   1.693349249156e+02 
4 1  2.501186826922e+02  -5.329787769052e+02  -1.041976006749e+02 
5 1 -2.738548544894e+01  -1.144931383194e+02  -3.716033389291e+02 
6 1 -1.145889079794e+02   3.403470727345e+02  -4.887805389285e+02 
7 1  8.799002611485e+01  -8.452180839922e+01  -5.021754928250e+02 
8 1  1.490731089002e+02   1.596374947340e+02  -1.167790487778e+02 
8
Step 36000
1 1 -2.301596247867e+02  -1.208566479899e+02   1.670782284672e+02 
2 1  3.170272984961e+02   8.588329638957e+01  -2.849736011389e+01 
3 1 -3.625942923545e+01  -9.264577541031e+01   2.244661102750e+02 
4 1  3.209974021268e+01  -3.991575190779e+01   1.610049244672e+02 
5 1 -3.645790232655e+02  -2.836489472119e+01  -1.757816768221e+02 
6 1 -4.299879545119e+01  -2.760818436916e+01   1.501609862773e+02 
7 1  3.096187673650e+02  -2.544731454943e+02  -1.018399348602e+02 
8 1 -4.793386833180e+02  -3.159949537905e+02  -5.355062855234e+02 
8
Step 37000
1 1 -6.128076011849e+01  -1.123837571808e+02   1.322294611097e+02 
2 1 -8.437884790696e+01   3.640014231738e+02  -4.342419584102e+02 
3 1 -2.000027758413e+02  -2.958680417091e+02   4.851448343330e+02 
4 1  3.722473531844e+00   1.858604677403e+02  -1.816750565078e+02 
5 1 -1.326872399321e+02   6.906968116351e+01  -1.212678544937e+02 
6 1  3.952975068611e+02   1.363634984677e+01   1.150034327609e+02 
7 1  6.757813520436e+01  -1.387026553149e+02  -2.786513703540e+02 
8 1 -7.003450378868e+01  -2.253232810682e+00   1.196212764932e+02 
8
Step 38000
1 1 -2.919485375812e+02   1.536183893105e+02   2.948034941720e+02 
2 1  6.279908695154e+01   6.198168305417e+01  -1.851077633461e+02 
3 1 -2.640650339213e+02  -5.993982259987e+01   2.405160819578e+02 
4 1  2.143157297926e+02   2.984518659689e+01   2.756799903768e+01 
5 1 -5.462266108523e+02   9.186359487436e+01  -9.596825381520e+00 
6 1 -2.065106543937e+01   1.986511011126e+02  -8.557018605938e+01 
7 1  2.374528262772e+02  -5.249459071078e+02   1.866659992045e+02 
8 1 -3.070367955188e+02   1.483439049710e+02  -7.543824058428e+01 
8
Step 39000
1 1 -4.083631729191e+02  -2.326170659734e+02   2.181937097071e+01 
2 1 -3.401444212824e+02   4.615830042153e+01   2.689877946781e+02 
3 1 -1.784271565133e+02   3.252211500897e+02  -4.409425029031e+00 
4 1  2.303049928524e+02   2.276479007352e+02  -2.568364486777e+02 
5 1 -9.340549378866e+01  -4.115187754450e+01   2.107478625057e+01 
6 1 -1.765170142520e+02  -2.705999635124e+02  -8.240373431039e+01 
7 1  1.385487660195e+02  -3.266506390957e+01   3.095137800104e+01 
8 1 -4.852288075729e+01  -2.348275515906e+01  -1.781397284803e+02 
8
Step 40000
1 1  1.964814852772e+01   1.734941452894e+02   5.776827036145e+02 
2 1 -1.846765604977e+02   1.016459701960e+02  -5.143580843995e+02 
3 1  1.904494446223e+02   1.181230749658e+02   2.352396408920e+02 
4 1 -6.705353343135e+00   5.342934123463e+01   9.401705228329e+01 
5 1 -3.525412957690e+00   5.246651045800e+01  -1.191969276154e+02 
6 1 -1.049435515338e+02   1.969004727667e+02  -4.573864983364e+01 
7 1 -3.188089620421e+02   2.550870917473e+02  -1.694739103590e+02 
8 1 -8.057901477958e+00  -3.896214990344e+02   7.282663828754e+02 
8
Step 41000
1 1 -6.455662040750e+02  -2.744530787206e+02  -4.436003092217e+02 
2 1  1.238482108179e+02   1.566261495490e+02  -4.075503040491e+02 
3 1 -1.394297256962e+02   2.864136187201e+02   1.309716662408e+02 
4 1  6.731738794025e+01   1.363655807379e+02   2.998483429620e+02 
5 1 -2.274478857651e+02   1.251947413352e+00  -2.426170006705e+02 
6 1 -7.592057763539e+01   3.556908532080e+02   2.635090104731e+02 
7 1  4.566447811066e+01  -3.835615947859e+02   4.347329830544e+02 
8 1 -2.562536626171e+02   1.148101614054e+02   3.599637559485e+02 
8
Step 42000
1 1 -3.075720774139e+01   3.251099159577e+02   2.853614493232e+02 
2 1 -1.503779768182e+02   6.067273143697e+01  -1.487350365524e+02 
3 1 -1.789684165457e+02  -2.195814594295e+02  -2.528385327852e+02 
4 1  2.082100980953e+02   1.958209667910e+02  -3.080307962454e+01 
5 1 -7.048208276369e+01   3.077441757466e+01  -1.388968112616e+02 
6 1  9.106889970086e+01   2.224259231715e+02  -2.813136988426e+02 
7 1 -1.924198297980e+02   1.392403226407e+02   9.331086818101e+00 
8 1 -4.667617143852e+02  -7.149214716486e+01   4.353507507951e+02 
8
Step 43000
1 1 -4.730449667673e+02  -1.166685213448e+01  -1.933082110481e+02 
2 1 -2.526925908709e+02  -2.216690971604e+02  -6.106709487003e+02 
3 1 -1.927547564554e+01  -1.541321049772e+01  -5.384835556704e+01 
4 1 -1.453836974848e+02  -6.841679948411e+01   3.827129246156e+02 
5 1 -2.300674413665e+02   7.559843560206e+01   2.330415501072e+02 
6 1  2.436184442739e+02  -1.777029462285e+02  -3.913763175325e+01 
7 1 -1.398899720492e+02   3.047464591623e+02   9.170309748486e+01 
8 1 -3.005137007798e+02  -3.310014219133e+01   4.323804576760e+02 
8
Step 44000
1 1 -2.756449539308e+02   2.003793919838e+02   2.343909635407e+01 
2 1 -8.893573185459e+01  -1.771702368651e+02  -3.633438781293e+02 
3 1  3.308537316217e+02   4.431747310930e+02  -3.308931683307e+02 
4 1  2.435084189226e+02   1.174028531081e+02  -5.785942442490e+01 
5 1  1.347995011731e+02   1.727924003050e+02  -2.498808027196e+02 
6 1 -1.708446822555e+02  -6.903409629294e+01   1.459172119715e+02 
7 1  6.371652325872e+01  -3.040965041126e+02   1.933626349068e+02 
8 1 -1.286792133294e+02   2.566156114790e+02   4.550003384445e+01 
8
Step 45000
1 1 -6.713627129545e+01  -2.291793824467e+02  -5.425008528827e+02 
2 1 -2.971912435521e+02  -9.101752842403e+01  -8.856044569393e+01 
3 1 -9.368693786395e+01   2.922383315055e+01  -2.838236935047e+02 
4 1 -2.261044016493e+02   1.800567977505e+02   3.305355037396e+01 
5 1 -6.987473927797e+01  -2.968801000029e+02   6.929280944411e+00 
6 1  9.338932458248e+01   1.374398550543e+02   2.848721873267e+02 
7 1  2.700147783772e-01   3.107136624970e+02   5.793581708642e+00 
8 1 -4.904502786905e+02  -1.075151943790e+01   7.180032164418e+02 
8
Step 46000
1 1 -1.532657952534e+02   3.338979518276e+01  -3.195906992736e+02 
2 1 -1.603326571848e+02  -4.488563158617e+02   1.143632627788e+02 
3 1  6.470241879358e+01  -3.113001626102e+01  -1.715421048838e+02 
4 1  2.514072158758e+02   2.590759105601e+02  -3.072161865039e+02 
5 1 -8.537035898854e+01  -2.034824813227e+02  -3.482157954899e+02 
6 1  3.472361021171e+02  -3.492504619246e+02   1.110359226678e+02 
7 1 -9.519947658024e+01   3.398574165368e+02  -4.002473177991e+02 
8 1 -4.323727088225e+02   1.647687196178e+02  -8.974460310724e+01 
8
Step 47000
1 1  1.551851767197e+02   7.571526967531e+01  -1.955283199908e+02 
2 1 -2.439643319890e+02  -5.964739604321e+02   4.779732606036e+02 
3 1 -5.932696543189e+01  -8.602257436425e+01  -2.576103072964e+02 
4 1  3.164612784137e+02  -7.267839169878e+01   2.112713323252e+02 
5 1  3.502938801565e+02   1.582815640492e+02  -4.329741539188e+02 
6 1 -1.483082507894e+02  -4.280765078997e+01   2.631476182964e+02 
7 1 -2.054142044350e+02  -9.997402622252e+01   1.390157706571e+02 
8 1 -4.572431823583e+02   3.624706605182e+02   3.145896166165e+01 
8
Step 48000
1 1 -2.442080373774e+02  -2.482671456500e+02  -5.244490568870e+02 
2 1  1.303965538186e+02  -1.641949765700e+02   3.650507514964e+02 
3 1  2.873304220215e+02  -2.651216083384e+02  -1.708847291980e+02 
4 1 -1.897879133437e+01   2.594589440358e+02  -2.795567540714e+01 
5 1  2.017036380671e+02  -3.180122958127e+02  -4.128318622103e+02 
6 1 -4.749459134460e+01  -4.203694645570e+01  -4.876359287131e+01 
7 1 -1.138663662359e+01   1.544500775842e+02   1.260462769867e+02 
8 1  9.014038952181e+01   1.294816694745e+02  -2.103745750545e+02 
8
Step 49000
1 1  3.939041444748e+02  -1.152625665737e+02  -3.172107436540e+02 
2 1  2.599699954774e+02  -1.221666885030e+02   4.756469712425e+02 
3 1 -1.493379432169e+01  -4.302486702462e+02   1.056018865612e+02 
4 1  1.304359424365e+02   1.633884937258e+02   1.674887214881e+02 
5 1 -8.820475122200e+00   1.737633490241e+02   2.805831262283e+01 
6 1 -2.775740830312e+02  -1.536201608764e+02  -4.865583179896e+02 
7 1 -2.214292232486e+02   3.962877287160e+02   1.630616039776e+02 
8 1 -2.056004927798e+02  -1.053293989840e+02   4.446247463925e+01 
8
Step 50000
1 1 -9.293765844491e+01  -1.747510101636e+02   7.808426099005e+01 
2 1  5.342560517668e+01  -3.469842170443e+01   4.447591433027e+02 
3 1  8.673360067369e+01  -1.839196383153e+02  -2.493857510265e+02 
4 1 -1.981100529953e+02  -7.189387394887e+02  -4.666063121454e+01 
5 1  9.935521495219e+01  -2.780762887564e+02  -2.163135581910e+01 
6 1  1.498510726780e+02  -1.298639770075e+02  -2.995441057185e+02 
7 1  4.278753654625e+02   6.007202815469e+02  -4.646137862249e+02 
8 1 -5.222991849306e+01   7.634595769326e+01   2.784664060707e+02 
8
Step 51000
1 1  8.934664519756e+01   3.992904099699e+01  -4.950675414940e+01 
2 1  2.497950568216e+02   1.637297034092e+01   3.941460929690e+02 
3 1  2.646652810084e+02  -2.794908992238e+02   1.785634364493e+01 
4 1  6.566968838088e+00   3.409092263606e+02   1.843925979327e+02 
5 1  4.889093986723e+01  -1.134489489170e+02  -1.872732749946e+02 
6 1  4.279292507059e+01  -2.918667121605e+01   3.988448887227e+02 
7 1  2.234879625423e+02   1.746701340616e+02  -6.093228380936e+02 
8 1 -2.351538020835e+02   1.131994355005e+02   2.391988916267e+02 
8
Step 52000
1 1 -1.941740043232e+02  -1.074977335379e+02   2.448235066576e+01 
2 1 -1.446493363226e+02   1.370568545141e+02   3.476366292022e+02 
3 1 -1.647774129247e+02  -6.473255389804e+01  -4.159134584607e+02 
4 1  1.748010161174e+02  -1.305333375655e+02  -8.627910424915e+01 
5 1 -1.718806373632e+01  -1.888632282376e+02  -3.910840630949e+02 
6 1  1.183084232922e+02   2.158110603110e+01   1.823938096611e+02 
7 1  2.390756007983e+02   9.900173088491e+01   3.180450585937e+02 
8 1  1.158280814950e+02   2.994941980193e+02   1.485766247734e+02 
8
Step 53000
1 1  1.276635067830e+02  -4.767322041975e+01  -2.164451538827e+02 
2 1 -2.596779153626e+01   2.381216514908e+02   1.535295709942e+02 
3 1  1.925369937689e+01   3.186610779974e+02  -2.908104862923e+02 
4 1 -3.599826732003e+02  -1.144917501840e+02   2.263786270322e+02 
5 1  1.704048526294e+02  -3.558743483004e+01  -1.843343785555e+02 
6 1  3.674636801363e+02  -7.510969893724e+01   1.264744318492e+02 
7 1  2.565434628836e+02   1.930064849117e+02   1.874143073310e+02 
8 1  2.588180052876e+01  -4.343646193400e+01  -2.359156569139e+02 
8
Step 54000
1 1 -1.399569780588e+02   3.334510980180e+02   4.653311525754e+02 
2 1 -3.807345115790e+02   1.679739860284e+01   9.846501010176e+01 
3 1 -1.734723572448e+02  -2.163580524439e+02  -2.031078623169e+02 
4 1 -3.534062894693e+02  -1.370144068568e+02  -4.701882527468e+01 
5 1  4.218372810654e+02   5.131482116738e+01  -2.087304136136e+02 