8
Step 0
1 1  1.976204776260e+02  -1.327257613333e+01   2.703176273771e+02 
2 1  2.003061905833e+02  -2.544223981605e+02   3.731957994478e+01 
3 1  3.175536340511e+01   7.854931605754e+01   2.211130902848e+02 
4 1  1.106521732543e+02  -1.894472683087e+02   2.165739811924e+02 
5 1 -2.560395550905e+02   9.179978589662e+01  -8.380647691923e+01 
6 1  3.277134704153e+02   3.549403928910e+02  -3.306515228372e+02 
7 1  3.843816880327e+01   1.374312923885e+02  -1.669173694866e+02 
8 1  6.066579180227e+01   1.956450288481e+02   2.848463208239e+01 
8
Step 1000
1 1 -6.233548535398e+01  -3.214502231157e+01   5.845960381712e+02 
2 1  2.107785593922e+01   4.030056206694e+02  -2.650734844776e+02 
3 1 -3.243311258085e+02   8.313361609033e+02  -2.178599199291e+02 
4 1 -5.753916458447e+02   4.983005897878e+02   3.887165897715e+02 
5 1 -6.897165617129e+02   5.526021372073e+02  -2.387158396799e+02 
6 1  3.679630555837e+02  -4.142541966336e+02  -5.870824043510e+02 
7 1 -3.212863285017e+02   6.825547186520e+02   3.821955506996e+02 
8 1  5.914410100159e+02   7.665865120086e+01   3.857099952959e+01 
8
Step 2000
1 1 -1.828604687618e+02  -1.485092468065e+02   3.614301023998e+02 
2 1 -4.682709654926e+00   4.041558617061e+02  -4.087962396501e+02 
3 1 -5.250739157001e+02   5.755550481150e+02  -5.404018023648e+02 
4 1 -3.677420080870e+02   6.936597664500e+02   3.372406782637e+02 
5 1 -3.394642375089e+02   5.004752342106e+02  -2.406412591528e+02 
6 1  1.986272856919e+02  -7.145413272319e+02  -2.429847325866e+02 
7 1 -3.763698413606e+02   4.420424551046e+02   5.737873073424e+02 
8 1  6.080347592391e+02  -3.554045285916e+02  -3.009557529148e+01 
8
Step 3000
1 1  2.507074823753e+01  -2.780426114197e+02  -1.218237620337e+02 
2 1  1.999924126371e+02  -9.816950827531e+01  -4.036696865576e+02 
3 1 -4.231268388827e+02  -3.882560669181e+02  -4.555861765000e+02 
4 1  2.835412772034e+02   1.118173667274e+02   1.794590020642e+02 
5 1  3.675536214261e+02  -2.594458248848e+01  -1.921401328278e+02 
6 1  7.251983852764e+01  -2.090439532052e+02   3.267606484973e+02 
7 1 -5.809455619986e+01  -1.473589209310e+02   2.049904525691e+02 
8 1  1.341947693173e+02  -3.435605737023e+02  -4.648666169598e+01 
8
Step 4000
1 1  1.830294506019e+02  -1.597051315439e+02  -4.250715462121e+02 
2 1  1.624440645478e+02  -4.227062869855e+02  -3.012224016322e+01 
3 1 -7.047759260805e+01  -8.853860816077e+02  -1.371140478906e+02 
4 1  4.958679011260e+02  -4.898692450146e+02  -5.246526464653e+01 
5 1  6.336997066854e+02  -5.728724992827e+02  -1.365363489003e+02 
6 1  2.329328786200e+01   4.834059768121e+02   5.078125133852e+02 
7 1  2.145080854405e+02  -3.712042553492e+02  -2.743967428561e+02 
8 1 -4.115728622986e+02   2.230797278589e+02   2.378924502926e+01 
8
Step 5000
1 1  8.409596734323e+01   1.196581640198e+02  -3.232737401842e+02 
2 1 -2.227328633002e+02  -1.850644554049e+02   3.271834786827e+02 
3 1  3.082921110672e+02  -4.023942757128e+02   2.155377546182e+02 
4 1  4.510732345203e+01  -5.904968911125e+02  -2.918057895455e+02 
5 1  1.905635900406e+02  -5.700418139863e+02   1.253018753655e+02 
6 1 -1.032918735382e+02   5.764167933161e+02   1.405554496750e+02 
7 1  1.353575251610e+02  -1.230483974773e+02  -3.824141674402e+02 
8 1 -5.648960912153e+02   6.268885071564e+02   8.829232474266e+01 
8
Step 6000
1 1 -5.279729973060e+01   1.866272034411e+02  -6.154926732835e+01 
2 1 -4.742411779150e+02   3.076834395194e+02   3.517629854814e+02 
3 1  4.572472570103e+02   3.778448252767e+02   3.783731602281e+02 
4 1 -5.949187724976e+02  -2.303466235113e+02  -3.874021894805e+02 
5 1 -3.346457537092e+02  -1.046799660462e+02   3.463944812453e+02 
6 1 -2.707678231302e+02  -2.583676085294e+01  -2.360998226875e+02 
7 1 -1.131398875883e+02   1.327683066389e+02  -8.101363931529e+01 
8 1 -2.387929371612e+02   3.473310610529e+02   4.050098474970e+01 
8
Step 7000
1 1 -3.731680039334e+01  -6.946017722683e+01   8.029823977062e+01 
2 1 -2.807553356841e+02   3.484339294908e+02   1.681560632663e+02 
3 1  3.473790623511e+02   7.119116036588e+02   2.296730662698e+02 
4 1 -5.723349144888e+02   1.278364397060e+02  -3.409626302863e+02 
5 1 -3.998734796580e+02   2.976748326041e+02   1.374354837475e+02 
6 1 -3.462557198247e+02  -6.620102097659e+02  -1.654257281522e+02 
7 1 -1.514569851371e+02   9.985510631023e+01   2.517407643982e+02 
8 1  2.767039891266e+02  -3.044037627082e+02  -3.546070827264e+01 
8
Step 8000
1 1  9.818597571035e+01  -3.037972748707e+02  -2.817418832576e+01 
2 1  8.434819861792e+01  -3.721501260114e+01   4.845656800416e+01 
3 1  4.199307909846e+01   3.716898955865e+02  -2.978590945902e+01 
4 1  6.670611731570e+01   1.601694086157e+02  -1.834756598052e+02 
5 1 -8.298751137950e+01   3.480570256772e+02  -2.920496891030e+02 
6 1 -1.544594544154e+02  -6.403949671304e+02   1.848561460648e+02 
7 1  1.515862660812e+02  -1.049957149577e+02   2.391110440465e+02 
8 1  4.999370531402e+02  -5.247044590125e+02  -1.062819764127e+01 
8
Step 9000
1 1  3.438884753283e+01  -1.632192155549e+02  -1.742595969915e+02 
2 1  3.084484385540e+02  -3.590596691000e+02   1.501424323877e+02 
3 1 -1.195246144679e+02  -1.393013537600e+02  -2.006974470759e+02 
4 1  5.126701319936e+02   7.116598116141e+01   3.292829172096e+01 
5 1  1.401201104057e+02   1.535960632798e+02  -3.976240644139e+02 
6 1  2.704356093678e+01  -6.610992807002e+00   3.136918583914e+02 
7 1  4.528611690606e+02  -1.783522263554e+02  -5.446171907620e+01 
8 1  2.360682665743e+02  -4.630193196322e+01   1.358948374293e+02 
8
Step 10000
1 1 -2.710780421269e+02   2.934113211158e+02  -7.831475914451e+01 
2 1  2.344926935670e+02  -2.212676341154e+02   2.180166087456e+02 
3 1 -1.981549011611e+02  -3.260155289459e+02  -7.163982509057e+01 
4 1  3.163773811681e+02   1.380120125530e+02   2.355296297450e+02 
5 1  8.637880272952e+01   2.484949805121e+01   2.863830101859e+00 
6 1  2.715216412413e+02   4.095545971674e+02  -3.952209666561e+01 
7 1  3.396058800610e+02  -4.335640854980e+01  -2.668925462322e+02 
8 1 -2.715503085951e+02   5.304484528340e+02   2.191323374067e+02 
8
Step 11000
1 1 -4.070159956603e+02   5.457464257195e+02   1.920184991292e+02 
2 1 -4.056712494100e+01   5.876110405862e+01   6.464824409330e-01 
3 1 -9.854544917846e+01  -2.566110365665e+02   2.230786327189e+02 
4 1 -9.089683096007e+01   2.259280716956e+02   2.995028941094e+02 
5 1 -2.996635800684e+01   3.661487482800e+01   4.240237518688e+02 
6 1  3.993484430127e+02   4.599461241524e+02  -4.139001500176e+02 
7 1 -1.709977318542e+02   1.074811815313e+02  -2.011225974332e+02 
8 1 -5.313749487886e+02   4.780718101273e+02   5.797356892512e+01 
8
Step 12000
1 1 -1.332915015752e+02   2.589760317165e+02   3.840244144737e+02 
2 1 -1.090263228733e+02   1.602109718751e+02  -3.391990008813e+02 
3 1  3.638460691796e+01  -3.955297295213e+01   2.896244620448e+02 
4 1 -1.055428854708e+02   1.213977285635e+02   1.625539162060e+02 
5 1  4.286339406077e+01   7.018568324747e+01   3.224121507556e+02 
6 1  2.850446184741e+02   4.583776026575e+01  -3.393450991903e+02 
7 1 -5.794654542113e+02   1.400001973857e+02  -8.978877946065e+00 
8 1 -2.931277050018e+02  -1.454959438765e+02  -2.600725505465e+02 
8
Step 13000
1 1  3.466377043808e+02  -3.043539922374e+02   2.860845494013e+02 
2 1  6.662991441407e+01   4.719315384150e+01  -5.140517890553e+02 
3 1  1.967041802258e+01   4.700591070360e+01   4.712427368402e+01 
4 1  1.922688052172e+02  -9.937577207290e+01  -2.577895197023e+00 
5 1  2.149467097617e+02   2.142325060066e+00  -1.626467160349e+02 
6 1  2.886814461197e+01  -2.362265428890e+02   7.266671237912e+01 
7 1 -4.685788378601e+02   9.335566894481e+01   7.412462031212e+01 
8 1  1.975658413422e+02  -5.882188899084e+02  -4.143853239467e+02 
8
Step 14000
1 1  5.539396541052e+02  -5.724286236107e+02  -9.050012397543e+00 
2 1  1.220374530496e+02   1.473003375613e+01  -2.861686124350e+02 
3 1 -1.315094354013e+02  -1.087921758870e+00  -2.826983549498e+02 
4 1  2.970609241787e+02  -1.755480631264e+02  -9.638484570083e+00 
5 1  2.448106269756e+02  -1.216305809081e+02  -4.064371094574e+02 
6 1 -2.084926170011e+02  -7.671943197639e+01   2.869168440428e+02 
7 1  3.778474849716e+01   5.138519316337e+01   3.947686618521e+01 
8 1  4.868494868910e+02  -3.867906688415e+02  -2.080283997298e+02 
8
Step 15000
1 1  2.550742376929e+02  -2.902293985009e+02  -2.184226890477e+02 
2 1 -5.386623141430e+01   1.857314700574e+02   1.647428609747e+02 
3 1 -2.179299218501e+02  -7.528016405976e+01  -3.812863563772e+02 
4 1 -6.383882595006e+01  -6.054044812188e+01   5.882828951431e+01 
5 1  2.759315987737e+01  -2.611522058093e+02  -1.567226720812e+02 
6 1 -2.425670769989e+02   3.741918692111e+02   1.334978579406e+02 
7 1  4.197300484941e+02   8.864304375444e+00   6.584390956928e+01 
8 1  3.786748028369e+02   1.182803034803e+02   1.879495460017e+02 
8
Step 16000
1 1 -1.594499440051e+02   2.227874702870e+02  -2.802316807188e+02 
2 1 -2.059621600747e+02   2.582922798670e+02   4.305478904467e+02 
3 1 -4.104290157472e+01  -1.147859812222e+01  -2.232541095623e+02 
4 1 -4.791873127591e+02   8.376733113799e+01   3.276887140100e+01 
5 1 -3.266287207088e+02  -2.732854503486e+02   3.132363540455e+02 
6 1 -1.451968490725e+02   4.368810661321e+02  -9.440043012574e+01 
7 1  3.388616419597e+02  -9.680123902451e+01   1.836418201239e+02 
8 1  5.296184375471e+01   2.935562597162e+02   3.830652502423e+02 
8
Step 17000
1 1 -2.999697166192e+02   4.459067567592e+02  -2.451811021822e+02 
2 1 -8.874052143684e+01  -2.025980061044e+01   2.736803084479e+02 
3 1  1.719858250523e+02   1.308508073200e+02  -1.122962192040e+01 
4 1 -3.612661210920e+02  -5.918059405581e+00  -1.111507641570e+02 
5 1 -4.413873473473e+02  -3.199725881410e+01   4.699972961243e+02 
6 1 -5.213067819832e+01  -7.499573089800e+01  -3.902939692278e+01 
7 1 -5.730482160074e+01  -1.860161212870e+02   1.874287009927e+02 
8 1 -2.040113445741e+02   8.030687212129e+00   1.930629869333e+02 
8
Step 18000
1 1 -1.628612903719e+02   2.457663176569e+02  -6.873474974345e+01 
2 1  1.575615893121e+02  -4.532646830098e+02  -6.869284150459e+01 
3 1  2.030866874622e+02   2.617010626977e+02   1.480963487970e+02 
4 1  9.569792589417e+01  -2.974587032907e+02  -2.063781290200e+02 
5 1 -1.542698380911e+02   2.714320130580e+02   7.100326404940e+01 
6 1 -3.441236730693e+01  -6.397787263086e+02   1.483858992436e+02 
7 1 -3.137855356728e+02  -1.002241694664e+02  -3.222761785912e+01 
8 1 -2.554019166688e+02  -2.628109182962e+02  -1.412299625458e+02 
8
Step 19000
1 1 -4.915325752262e+01  -1.244338464446e+02   1.640937818838e+02 
2 1  1.967767628899e+02  -5.709294455387e+02  -2.197802280707e+02 
3 1  7.128428523156e+01   1.907518345994e+02   1.901858079013e+02 
4 1  3.321600479075e+02  -3.099728507631e+02  -4.129330660883e+01 
5 1  2.134606506882e+02   3.520560202467e+02  -4.045070329176e+02 
6 1 -1.346486880775e+00  -6.172104242341e+02   1.480077835385e+02 
7 1 -1.653432909083e+02   1.192749548409e+02  -2.814956626635e+02 
8 1 -2.029521299132e+02  -1.095544660529e+02  -2.537006617563e+02 
8
Step 20000
1 1 -1.108061024401e+02  -3.045645943481e+02   2.661022656559e+02 
2 1 -5.248981868984e+01  -8.337000031599e+01  -7.885291838583e+01 
3 1 -4.565599707665e+01  -9.255274727452e+01   1.485461809483e+02 
4 1  4.096315346694e+01   1.694722688056e+02   1.589504206611e+02 
5 1  3.593097363501e+02   9.991858616475e+01  -4.500565361028e+02 
6 1  9.974677525394e+01  -9.906525235337e+01   3.040491360024e+01 
7 1  2.326961502371e+02   2.267841671150e+02  -2.536468797982e+02 
8 1 -1.165020333657e+02   2.781817573752e+02  -3.064511955802e+01 
8
Step 21000
1 1 -1.882381981968e+02  -1.515219840508e+02   1.841663106788e+02 
2 1 -2.353113240855e+02   4.860940284360e+02   1.026215192857e+02 
3 1  2.310480743047e+01  -3.583514386842e+02   1.262054030441e+02 
4 1 -3.682503827515e+02   6.895033655230e+02   6.938966014253e+01 
5 1  1.536865595921e+02  -2.362449239184e+02  -9.733279536653e+01 
6 1  2.195771496862e+02   3.730552881688e+02  -6.529748572963e+01 
7 1  4.439820415146e+02   6.193449372109e+01   4.326469171259e+01 
8 1 -1.270610480088e+01   4.574851525622e+02   2.455205461314e+02 
8
Step 22000
1 1  9.817627263701e+00   2.701061568704e+01  -4.379154417507e+01 
2 1 -1.052348367809e+02   5.846026423101e+02   7.408501543278e+01 
3 1  1.498445777602e+02  -3.215625511930e+02   1.381450445530e+02 
4 1 -2.840194424872e+02   5.908548479943e+02  -2.986921593385e+02 
5 1 -1.334405637648e+02  -3.049353157126e+02   2.592755454446e+02 
6 1  1.221294048555e+02   4.479768422912e+02  -1.399738334835e+02 
7 1  1.985389336954e+02  -2.073857994596e+02   2.889830620388e+02 
8 1  9.425862268483e+01   2.178891669147e+02   2.626364653609e+02 
8
Step 23000
1 1  2.928665018340e+02   6.996019387222e+01  -2.262452127259e+02 
2 1  1.700984136987e+02   1.501537653653e+02  -1.407894738342e+02 
3 1  2.681805559570e+01   2.763559314336e+00   9.981206243399e+01 
4 1  3.602672815885e+02  -1.595977313849e+02  -5.448951703784e+02 
5 1 -1.633929930392e+02  -9.083039714338e+01   2.603239308926e+02 
6 1 -1.167626869726e+02   1.662263228278e+02  -1.011889785781e+02 
7 1 -3.346002086936e+02  -2.298125750359e+02   1.906254886918e+02 
8 1  1.451222340276e+02  -1.489585208168e+02  -1.690877749506e+00 
8
Step 24000
1 1  3.674113917019e+02   6.894950686093e+01  -2.571328261445e+02 
2 1  1.798200834718e+02  -4.176712893307e+02  -1.046611844614e+02 
3 1 -1.990945619842e+02   2.787262148287e+02  -4.377559059491e+01 
4 1  7.551298200412e+02  -9.531495943545e+02  -1.582400744506e+02 
5 1 -1.042753753157e+01   3.007095068415e+02  -4.886786188011e+01 
6 1 -1.924393053650e+02  -7.955054652149e+01  -7.631758583642e+01 
7 1 -6.260169214234e+02   2.845809143180e+01  -1.047325574166e+02 
8 1  8.217756705294e+01  -2.588140979026e+02  -2.717498779732e+02 
8
Step 25000
1 1  1.855440650188e+02   3.208744409740e+01  -6.839910710256e+01 
2 1 -1.129175898919e+02  -4.247886034376e+02   1.734854089034e+02 
3 1 -3.274691274361e+02   2.484571610020e+02  -2.156720593741e+02 
4 1  4.098614974852e+02  -9.146819963057e+02   6.419920896356e+02 
5 1  1.298620736765e+02   3.688236099575e+02  -1.745052924385e+02 
6 1 -5.882529749066e+01  -6.336581209229e+01  -1.073074812714e+02 
7 1 -3.147425394862e+02   2.534602745957e+02  -2.291760558566e+02 
8 1 -3.552360656135e+01  -9.986422402267e+01  -2.774389343639e+02 
8
Step 26000
1 1 -8.330497575245e+01   6.817667259946e+01   1.464559071472e+02 
2 1 -2.501671440211e+02  -3.371084387846e+01   4.076473436606e+02 
3 1 -1.342407724867e+02  -4.897228998942e+01  -3.493619796464e+02 
4 1 -3.348628079430e+02   1.002512625318e+02   8.780771728856e+02 
5 1  4.883360547588e+01   6.931170323366e+01   8.180249284667e+01 
6 1  1.445924135668e+02   1.692659576441e+01  -3.069643081449e+01 
7 1  3.010529806965e+02   1.229710705903e+02  -6.429642854619e+01 
8 1 -3.773938548026e+01  -3.199690082256e+00  -6.591550987199e+01 
8
Step 27000
1 1 -6.291995025602e+01   5.570180391690e+01   2.415047993136e+02 
2 1 -6.364895121492e+01   3.336333313854e+02   1.639498683302e+02 
3 1  1.534782691265e+02  -1.720483115498e+02  -3.215002551010e+02 
4 1 -6.277339785802e+02   1.044275551601e+03   2.535398587759e+02 
5 1 -1.901277230184e+02  -2.987895453464e+02   3.585551750752e+02 
6 1  1.408507141691e+02  -3.251852707613e+01   1.404726143822e+02 
7 1  5.973692600024e+02  -1.970388591871e+02   1.017443474451e+02 
8 1  1.014013145285e+02  -1.208952742005e+02   9.754477205411e+01 
8
Step 28000
1 1  5.997517114287e+01  -4.053033976223e+01   2.081170574284e+02 
2 1  2.875664792159e+02   3.170564705579e+02  -4.680878295018e+02 
3 1  1.425085211256e+02   2.754351499662e+01  -6.104995925500e+01 
4 1 -2.177710216145e+02   8.833450747753e+02  -4.773910672025e+02 
5 1 -3.279556369530e+02  -2.862104634404e+02   2.335199568548e+02 
6 1 -3.218566333969e+01  -1.257460592800e+02   2.296099137132e+02 
7 1  3.170717238145e+02  -2.495392828735e+02   3.151379635761e+01 
8 1  2.013461341101e+02  -2.387484789780e+02   9.596224015867e+01 
8
Step 29000
1 1 -8.276542490886e+01  -5.964727852047e+01   8.401078332463e+01 
2 1  3.064273365799e+02  -7.129553956784e+01  -6.716314264154e+02 
3 1  1.399137359556e+01   2.178319358764e+02   3.302326187457e+02 
4 1  2.470449756746e+02  -8.695482832919e+00  -5.092481746566e+02 
5 1 -1.306939787818e+02  -2.863384908944e+01  -2.060793576206e+02 
6 1 -1.401769297349e+02  -7.209371907864e+01   5.621153602796e+01 
7 1 -1.984294391893e+02   8.706077969125e+01  -1.138156641472e+02 
8 1  1.020900442318e+02  -1.278047485518e+02   4.899861654542e+01 
8
Step 30000
1 1 -3.637640365337e+02   5.920228463193e+01  -4.127424483199e+01 
2 1 -8.758398232930e+01  -3.417792740179e+02  -2.124770922301e+02 
3 1 -3.043504596431e+01   9.567131016090e+01   5.452428403573e+02 
4 1  2.299791417040e+02  -7.333812601565e+02   4.263325456476e+01 
5 1  3.220144605719e+02   1.039854837739e+02  -3.861744796341e+02 
6 1 -7.224574921616e+01   1.270406777870e+02  -1.915835457218e+02 
7 1 -4.244337868183e+02   4.454835427876e+02  -6.310130466200e+01 
8 1 -1.294428786326e+02   1.232813890211e+02   5.805694044474e+01 
8
Step 31000
1 1 -3.750416263878e+02   1.565395082338e+02  -9.327863879596e+01 
2 1 -3.469796913116e+02  -3.193024780645e+02   3.568812363984e+02 
3 1  7.375762939896e+01  -1.375411007154e+02   3.834008954452e+02 
4 1 -2.321697404778e+02  -6.253483199718e+02   3.313538935728e+02 
5 1  5.859613576619e+02   1.787589336740e+01  -1.823418974790e+02 
6 1  7.975243798642e+01   2.200738516265e+02  -1.659597170887e+02 
7 1 -2.139389887967e+02   3.584732371619e+02   1.617448696957e+02 
8 1 -2.580444598885e+02   2.452640735428e+02   6.783684634474e+01 
8
Step 32000
1 1  2.831758158359e+01   3.834582831517e+01  -7.593211843248e+01 
2 1 -1.576533220031e+02  -1.472420195886e+01   4.588655148834e+02 
3 1  2.084430556968e+02  -2.408445297724e+02  -9.294622680291e+01 
4 1 -4.141114353779e+02   7.786953586193e+01   2.347875192262e+01 
5 1  4.502592481876e+02  -1.030027698068e+02   1.110597463651e+02 
6 1 -9.923702832557e+01   1.002597597864e+02   1.234563376054e+00 
7 1  8.227541938228e+01  -1.520259841588e+02   1.946551039576e+02 
8 1 -1.893444967262e+02   1.568479672437e+02  -5.600020528982e+00 
8
Step 33000
1 1  4.078010827229e+02  -2.173521568209e+02  -1.796543955640e+02 
2 1  2.089261843117e+02   2.644629986641e+02   2.043956437546e+02 
3 1  6.207806669781e+01  -4.041179686559e+01  -4.811426026782e+02 
4 1 -4.343772434174e+01   5.118639577550e+02  -4.002431575030e+02 
5 1 -1.452274700986e+02  -4.036732898026e+01   6.831713194860e+01 
6 1 -2.378026392368e+02  -1.254270316412e+02   1.321402459349e+02 
7 1  2.520517018550e+02  -5.647807122647e+02  -2.550976746409e+01 
8 1 -3.142197138075e+01   8.563289153662e+00  -1.075431547398e+02 
8
Step 34000
1 1  3.098327781562e+02  -2.869931066332e+02  -2.244078878115e+02 
2 1  3.606284417752e+02   2.161102503434e+02  -1.860194087443e+02 
3 1 -1.718304752674e+02   2.753999386184e+02  -4.194322774091e+02 
4 1  4.537267108569e+02   2.294481182898e+02  -3.784426722024e+02 
5 1 -6.457745982455e+02   2.061197518786e+02  -1.280467868580e+02 
6 1 -1.339111851506e+02  -3.598496544770e+02   1.883938380721e+02 
7 1  1.765715488990e+02  -4.648066840135e+02  -2.149930331519e+02 
8 1  5.833179673262e+01  -2.364696620914e+01  -8.061274960589e+01 
8
Step 35000
1 1 -9.346037276314e+01  -1.599436593540e+02  -1.635697211667e+02 
2 1  1.731518649825e+02   7.155590039424e+01  -2.639897156625e+02 
3 1 -1.592495347768e+02   1.722094602786e+02   1.350010726619e+02 
4 1  4.557439146902e+02  -3.548001205544e+02   3.283398222195e+01 
5 1 -6.183074147079e+02   2.490886282527e+02  -9.847332515568e+01 
6 1  1.359408707060e+02  -2.980153957902e+02   1.856348818971e+01 
7 1  4.140882457353e+01   4.004750796442e+01  -6.200885703521e+01 
8 1  4.361333626004e+01   6.461949503323e+01   7.162067288299e+01 
8
Step 36000
1 1 -3.314702571323e+02   1.640819533905e+02  -6.314185445063e+01 
2 1 -1.837767160569e+02  -3.515744903828e+01   1.728128586078e+01 
3 1  8.721791044808e+01  -3.150159471661e+02   4.823004632078e+02 
4 1 -1.924279565293e+01  -5.099277032710e+02   2.838648631854e+02 
5 1 -1.740279032893e+02  -7.543522294470e+00   1.377162347751e+02 
6 1  4.080993292487e+02  -5.903123900445e+01  -7.484036485223e+01 
7 1 -7.182940588814e+01   4.379917786558e+02   2.578245822645e+02 
8 1  3.245729945569e+01   1.162382169174e+02   1.659457336098e+02 
8
Step 37000
1 1 -1.358030177686e+02   3.412003270415e+02   1.219954270736e+02 
2 1 -3.917335684040e+02   2.413316480803e+00   2.349478937252e+02 
3 1  2.204064595819e+02  -5.847479212092e+02   2.021695723665e+02 
4 1 -3.993287964143e+02  -5.877989446793e+01   1.544577990863e+02 
5 1  3.037641735962e+02  -2.893871975194e+02   2.398529496190e+02 
6 1  2.815586211206e+02   1.683896108396e+02  -3.000095310475e+01 
7 1 -1.949599173572e+02   3.645716486242e+02   2.637810211873e+02 
8 1  7.324077759724e+01   4.479277612178e+01   1.072446150313e+02 
8
Step 38000
1 1  1.811390410975e+02   1.597718389127e+02   3.121177998942e+02 
2 1 -2.779450340597e+02   6.530375732233e+01   2.193435525642e+02 
3 1 -2.314911289416e+01  -1.792707142007e+02  -3.561903244999e+02 
4 1 -2.402781819829e+02   4.714823957253e+02  -2.548647160602e+01 
5 1  4.027139482541e+02  -2.456678502510e+02   8.550637940572e+01 
6 1 -1.157672740714e+02   2.589460081908e+02  -2.916406058232e+01 
7 1 -2.751474611196e+02  -4.633249502640e+01  -1.498290425867e+02 
8 1  1.105827455495e+02  -9.824800926766e+01  -7.431774538569e+01 
8
Step 39000
1 1  2.197635872804e+02  -1.846187137414e+02   3.616343998764e+02 
2 1  1.658685945267e+01   2.340046839343e+00   6.686248962309e+01 
3 1 -3.285450994997e+02   5.287199784021e+02  -4.624971995531e+02 
4 1  1.184690971747e+02   5.366971004781e+02   6.792476792393e+01 
5 1  2.136107904743e+02   7.293045706667e+01  -6.559440147045e+01 
6 1 -2.966646325784e+02   2.499359877139e+02  -1.843918512975e+02 
7 1 -1.495757239846e+02  -3.397631665125e+02  -4.965828712003e+02 
8 1  9.376585889771e+01  -2.039513537039e+02  -1.992902516865e+02 
8
Step 40000
1 1 -3.248196300856e+01  -2.710792777277e+02   2.779985817588e+02 
2 1  2.134787139050e+02  -1.848282451276e+02  -4.249467830630e+01 
3 1 -3.038119860100e+02   7.813898625969e+02  -6.697452876266e+01 
4 1  3.036465256311e+02   1.170745890653e+02   2.313633526378e+02 
5 1  3.985182211026e+01   3.299715419535e+02   4.554596524309e+01 
6 1 -2.290813488012e+01   1.899230824802e+02  -2.663731395742e+02 
7 1  2.136801821464e+02  -2.551649132241e+02  -3.259250490565e+02 
8 1  3.032580360539e+01  -1.750813216111e+02  -1.685869760905e+02 
8
Step 41000
1 1 -2.033677275710e+02  -3.438502229530e+01   6.165164459860e+01 
2 1  1.450631585716e+02  -2.231094153742e+02  -1.301346304457e+02 
3 1  1.688146739421e+02   2.910437526134e+02   2.855089165426e+02 
4 1  1.591798851864e+02  -3.437035234434e+02   1.064711619795e+02 
5 1  2.495152693334e+01   2.450477744744e+02   2.259648625740e+02 
6 1  3.378834795777e+02   6.721176689834e+01  -2.716333994607e+01 
7 1  4.663742124971e+02   2.084316873614e+02   2.331967272626e+02 
8 1 -2.438870081332e+01  -3.493870269403e+01  -5.460499540478e+01 
8
Step 42000
1 1 -2.738768914568e+01   3.098911020517e+02  -2.780305805331e+02 
2 1  4.869946894830e+01  -5.397693178780e+01  -1.530564306382e+02 
3 1  5.255852640811e+02  -3.611075931720e+02   1.662975493597e+02 
4 1 -1.837249735460e+02  -4.664910618600e+02  -2.110432884350e+02 
5 1  3.088877583681e+01  -4.652032244363e+01   7.284726171554e+01 
6 1  2.262065841400e+02  -7.616111475251e+01   3.755240875160e+02 
7 1  3.163987283615e+02   5.659004031213e+02   5.269287053216e+02 
8 1 -6.777594762809e+01   9.087885109641e+01   5.026777192903e+01 
8
Step 43000
1 1  2.879688791366e+02   3.353909969977e+02  -4.902112268320e+02 
2 1  2.804801241544e+01   1.551607284193e+02  -8.168707339290e+01 
3 1  2.799286526581e+02  -5.228602595200e+02  -1.786805277622e+02 
4 1 -3.262754530183e+02  -1.935950566846e+02  -3.165617581335e+02 
5 1 -8.474563605197e+01  -2.338412938531e+02  -3.791910166260e+02 
6 1 -3.203736187175e+02  -1.723674223887e+02   4.675452622310e+02 
7 1 -1.523664603108e+02   4.223469314484e+02   2.040895536840e+02 
8 1 -1.078916666358e+02   7.451309678853e+01   1.278953663576e+02 
8
Step 44000
1 1  2.996976145173e+02  -8.552460100589e+00  -3.483500277581e+02 
2 1  2.327504032195e+00   2.797149756880e+02  -6.112902499580e+00 
3 1 -2.333672692574e+02  -3.103181200755e+02  -1.979314393695e+02 
4 1 -1.081023051144e+02   1.961402077526e+02  -3.029093657281e+01 
5 1 -2.108103159132e+02  -2.035134762626e+02  -5.849515443829e+02 
6 1 -6.521185110370e+02  -1.652569824594e+02   8.516342482305e+01 
7 1 -4.739019276789e+02  -1.823503890671e+02  -2.946986032312e+02 
8 1 -1.167963539274e+02  -6.965789311364e+01   1.627822363415e+02 
8
Step 45000
1 1 -8.382815292432e+00  -4.211991187606e+02   2.875240059749e+01 
2 1  4.153846889282e+00   1.580158494196e+02   2.580732882838e+01 
3 1 -4.483746882932e+02  -4.780140831353e+01   1.668720494371e+02 
4 1  1.427728320861e+02   4.095311438581e+02   2.634517490807e+02 
5 1 -1.591205750645e+02  -8.708106784111e+01  -2.042787227983e+02 
6 1 -2.633992810775e+02  -1.230839343540e+02  -3.562251926220e+02 
7 1 -3.118142767788e+02  -6.795119629970e+02  -3.209546860617e+02 
8 1 -5.589464966059e+01  -1.513218467815e+02   1.088224235437e+02 
8
Step 46000
1 1 -3.171674879647e+02  -4.521003745905e+02   3.448405414199e+02 
2 1  5.816677702526e+01  -4.530148240474e+01  -1.087688462279e+02 
3 1 -2.085084142412e+02   1.085681482831e+02   4.430663040571e+02 
4 1  1.266699830233e+02   2.799400633841e+02   1.453135147311e+02 
5 1  4.832895638205e+01  -1.086340392601e+01   4.333638704651e+02 
6 1  4.819352153271e+02  -1.374776017809e+02  -3.418432878949e+02 
7 1  1.422378287031e+02  -6.075687669990e+02   1.034953233083e+02 
8 1  5.051089789337e+01  -9.297153948544e+00  -2.853763305201e+01 
8
Step 47000
1 1 -3.760771325606e+02  -8.021267465077e+01   3.885567398163e+02 
2 1  9.177709634977e+01  -1.157321039691e+02  -2.609043180188e+02 
3 1  1.354477653235e+02   1.789507430204e+02   1.948898428477e+02 
4 1 -7.754267899379e+01  -2.998604650483e+01  -2.611596034075e+02 
5 1  1.909230689889e+02   8.145975128070e+01   6.621131311295e+02 
6 1  7.222604919656e+02  -1.258827558768e+02   5.181763236805e+01 
7 1  3.683618824604e+02  -7.442536516345e+01   3.819222978799e+02 
8 1  9.501676840358e+01   2.661669038881e+02  -1.355758657111e+02 
8
Step 48000
1 1 -1.914473265794e+02   3.736210360749e+02   1.035966517775e+02 
2 1 -7.264715306624e+00  -9.446438913218e+01  -1.227002550741e+02 
3 1  2.723703169629e+02   2.336356187451e+02  -2.968219140151e+02 
4 1 -2.854186025048e+02  -2.473125887635e+02  -5.076966874531e+02 
5 1  1.755768983195e+02   9.706734067728e+01   3.171064848932e+02 
6 1  1.912066296493e+02   1.007349162489e+01   3.325151393079e+02 
7 1  1.577598361386e+02   3.676067993817e+02   1.570775559280e+02 
8 1 -2.566608415355e+01   4.093752899106e+02  -1.133040088410e+02 
8
Step 49000
1 1  5.215934878095e+01   4.569207516886e+02  -2.583529563459e+02 
2 1 -1.977164336739e+02  -7.239331982739e+01   3.092149523600e+02 
3 1  1.562852955144e+02   2.044020188003e+02  -3.973292701443e+02 
4 1 -2.263013354074e+02  -3.664622028044e+02  -2.823887509485e+02 
5 1  3.378663320525e+01   8.013317143835e+01  -1.727757012049e+02 
6 1 -5.276121497760e+02   1.930962089053e+02   1.553664668398e+02 
7 1 -1.903689610226e+02   3.637952542369e+02  -2.828593046700e+02 
8 1 -8.128584502784e+01   1.894092892736e+02   2.196906727436e+01 
8
Step 50000
1 1  1.742655981552e+02   1.025524497745e+02  -3.558144416471e+02 
2 1 -2.923774915094e+02  -7.587399139788e+01   6.334224883575e+02 
3 1 -2.777492688044e+01  -3.954896166658e+01  -1.859196144580e+01 
4 1  2.541758994846e+02  -3.902869298776e+02   2.529054654439e+02 
5 1 -1.827687868542e+02   1.184198138879e+01  -4.405122869335e+02 
6 1 -5.903924553096e+02   2.569685975280e+02  -2.042659588555e+02 
7 1 -2.418677020094e+02   1.088686153819e+02  -3.509698846151e+02 
8 1  1.282890839633e+01  -1.555473521813e+02   8.995726708982e+01 
8
Step 51000
1 1  2.552868117960e+02  -2.827728391886e+02  -1.450681464300e+02 
2 1 -1.820358361434e+02  -5.785001518006e+01   5.005646534294e+02 
3 1 -4.080727850725e+01  -3.507280293852e+02   3.101655132010e+02 
4 1  6.309179706849e+02  -7.161456673044e+01   5.279238649879e+02 
5 1 -2.907474247509e+02  -6.871607137969e+01  -3.701134092524e+02 
6 1 -3.642453740926e+01   8.933958770802e+01  -2.807304192430e+02 
7 1  1.414165058841e+01  -7.782721762682e+00  -7.951019805697e+00 
8 1  1.596501529932e+02  -2.905753963782e+02   2.380862509299e+01 
8
Step 52000
1 1  2.234165775202e+02  -3.024030262275e+02   7.981609767133e+01 
2 1  1.148284785430e+02   3.837713547004e+01   2.066477340919e+01 
3 1  1.913170739942e+00  -3.251877805088e+02   1.945394975397e+02 
4 1  4.022968558956e+02   4.362399377159e+02   2.747635467616e+02 
5 1 -2.448446035004e+02  -4.644856516267e+01  -3.022680813562e+01 
6 1  5.344222120264e+02  -6.838742187774e+01  -9.760956255246e+01 
7 1  1.971814029752e+02   8.326596427657e+01   2.248578304854e+02 
8 1  2.074752960906e+02  -1.984521230721e+02  -6.046494056889e+01 
8
Step 53000
1 1  5.596529359931e+01  -1.276535552075e+01   1.212599176999e+02 
2 1  3.668918596348e+02   9.254359897018e+01  -4.216710467369e+02 
3 1 -2.376497631098e+01   1.563775354257e+02  -2.113179971708e+02 
4 1 -2.298308506717e+02   6.821099046272e+02  -2.233874449852e+01 
5 1  6.819492218492e-02   1.357059516790e+02   1.909605364028e+02 
6 1  4.766405364767e+02  -7.204671215872e+01   1.104435606857e+02 
7 1  7.330630912302e+01   9.965088545208e+01   3.281602540571e+01 
8 1  5.787636869577e+01  -1.036995885159e+02  -4.618333203337e+01 
8
Step 54000
1 1 -7.078585450028e+01   2.433695917777e+02   1.337054882339e+02 
2 1  3.375816568859e+02   4.304476197139e+01  -5.748550940147e+02 
3 1 -8.995554155927e+01   5.546529810613e+02  -4.169114066434e+02 
4 1 -6.418138215523e+02   4.104859566700e+02   1.705174153358e+01 
5 1  2.765712247805e+02   1.525424337178e+02   1.418934522425e+02 