8
Step 0
1 1  1.976204776260e+02  -1.327257613333e+01   2.703176273771e+02 
2 1  2.003061905833e+02  -2.544223981605e+02   3.731957994478e+01 
3 1  3.175536340511e+01   7.854931605754e+01   2.211130902848e+02 
4 1  1.106521732543e+02  -1.894472683087e+02   2.165739811924e+02 
5 1 -2.560395550905e+02   9.179978589662e+01  -8.380647691923e+01 
6 1  3.277134704153e+02   3.549403928910e+02  -3.306515228372e+02 
7 1  3.843816880327e+01   1.374312923885e+02  -1.669173694866e+02 
8 1  6.066579180227e+01   1.956450288481e+02   2.848463208239e+01 
8
Step 1000
1 1  1.113860811503e+02   1.449485228374e+02  -3.838141619683e+02 
2 1 -2.554548073389e+02  -2.280840236416e+02   3.634609261182e+02 
3 1  3.486371018904e+02  -4.840236158691e+02   3.439697696259e+02 
4 1  1.587793299281e+02  -6.434890180311e+02  -2.352178437883e+02 
5 1  2.198221905268e+02  -8.527257549958e+02  -1.690367516311e+01 
6 1 -1.573388159330e+02   7.537806369756e+02   1.622807848111e+02 
7 1  1.632206763034e+02  -1.609434757356e+02  -4.692054628738e+02 
8 1 -6.788078148368e+02   7.244955625875e+02   9.334336642565e+01 
8
Step 2000
1 1 -3.653161530912e+02   3.584438288517e+02  -1.214500037395e+02 
2 1  1.871219055509e+02  -3.245212421678e+02   4.139376000201e+02 
3 1 -1.836023880654e+02  -3.246584002511e+02  -1.629771159552e+02 
4 1  5.785410785918e+02   3.253745998793e+02   5.515389045025e+02 
5 1  1.424388129713e+02  -1.088758665405e+02  -2.453501492299e+02 
6 1  2.987883218357e+02   4.381515979244e+02  -7.156066178943e+01 
7 1  4.505529630455e+02  -2.474488798047e+00  -3.665554766623e+02 
8 1 -3.738791800068e+02   7.507159251812e+02   3.367220448582e+02 
8
Step 3000
1 1  3.827686120102e+02  -5.158619631741e+02  -3.059421285013e+02 
2 1 -2.537962945232e+02   3.327564361390e+02   3.517591869043e+02 
3 1 -2.714732937972e+02  -3.219034424389e+01  -6.598589784578e+02 
4 1 -8.294748179742e+01  -1.847337908061e+02   1.816682758988e+02 
5 1  2.574484543531e+02  -3.710183745335e+02  -3.373330981214e+02 
6 1 -4.384868314292e+02   5.802698049188e+02   2.233465394994e+02 
7 1  5.987343624040e+02   1.144820223363e+01   1.228439220610e+02 
8 1  5.646479433227e+02   1.453988691478e+02   3.077980659182e+02 
8
Step 4000
1 1 -2.182442922374e+02  -2.714011803296e+02   4.033082348400e+02 
2 1 -9.626088531401e+01  -3.021730860679e+02  -4.074247719445e+00 
3 1  1.356386216492e+02   1.581049880019e+00   2.741102955449e+02 
4 1  1.146537514991e+02   1.665910024969e+02   2.352472746102e+02 
5 1  4.441262800242e+02   2.395949856896e+02  -7.660971841009e+02 
6 1  8.982021874052e+01  -3.158967135434e+02   3.200132656715e+01 
7 1  3.271871410460e+02   3.327190056209e+02  -3.948765672596e+02 
8 1 -2.225868364369e+02   4.352386448852e+02  -2.154353495485e+01 
8
Step 5000
1 1  2.364912500731e+02  -1.024579766128e+01   6.314224380082e+01 
2 1 -1.104425120343e+02  -3.173816311318e+02   3.661708115501e+02 
3 1 -2.398424384060e+02   1.560030399002e+02  -8.097327089952e+01 
4 1  4.473794819791e+02  -1.348822552358e+03   6.620696907100e+02 
5 1  2.283223584972e+02   6.955949049403e+02  -2.115657884129e+02 
6 1 -3.561090071904e+02  -8.869527485592e+01  -3.106486140537e+02 
7 1 -4.674431756739e+02   4.407980489455e+02  -3.439735996195e+02 
8 1  3.575897941089e+01  -1.939241475056e+02  -3.786004460744e+02 
8
Step 6000
1 1 -4.764855700514e+02   7.514858974909e+01   1.832107614195e+02 
2 1 -4.700567664312e+01  -5.025107518735e+02  -4.111336528646e+02 
3 1 -3.691450549947e+02   4.889862426887e+01   3.834880989770e+02 
4 1  6.702175107660e+02  -5.687140285996e+02   3.624441629223e+02 
5 1  2.165890026497e+02   1.492883030334e+02  -4.252634136117e+02 
6 1 -6.979999226146e+01   9.133534336603e+01  -4.756953720815e+02 
7 1 -5.950766482939e+02   5.614139689297e+02  -4.724686612752e+01 
8 1 -1.839904709847e+01   1.036544708231e+02   1.491043795621e+02 
8
Step 7000
1 1 -3.032102284755e+02  -1.034708935841e+02  -1.218864401920e+02 
2 1  1.573194885427e+02   3.114182689107e+01  -2.533641256038e+02 
3 1 -1.624065494050e+02   3.154567140200e+02   2.812321811141e+02 
4 1  5.251902452519e+02  -3.451109182989e+02  -9.947377936450e+01 
5 1 -7.911305912807e+02   4.071251174551e+02  -7.724486104083e+01 
6 1  5.261114212928e+02  -4.016830909569e+02   1.532592914953e+02 
7 1 -3.030892950674e+00   9.401062262716e+01   1.124593760139e+01 
8 1 -9.176883043712e+01  -5.996357941661e+01   1.537157828404e+01 
8
Step 8000
1 1  9.293524839432e+01  -7.548273866260e+01   1.975876443543e+01 
2 1  2.605440208666e+02  -4.833630368898e+02   1.395542473524e+02 
3 1 -3.843056641936e+02   6.800470150117e+02  -4.225789588472e+01 
4 1  2.196167650485e+02   3.492848661727e+02   4.716761475387e+02 
5 1  8.134335706267e+01   4.867061191878e+02   3.383435618341e+01 
6 1 -1.668421147407e+02   3.299014442050e+02  -4.032163496534e+02 
7 1  1.967018019220e+02  -4.581925923853e+02  -5.623105954765e+02 
8 1  8.868871886646e+01  -2.684224402385e+02  -1.676078676596e+02 
8
Step 9000
1 1  3.388808075634e+02  -8.972943559969e+02   2.413356608390e+02 
2 1  7.153145030463e+01   3.251697098912e+02  -1.235765015468e+02 
3 1 -6.620341374788e+02   5.159244715812e+02  -3.163799804469e+02 
4 1 -5.462978166547e+01  -4.294817410142e+01   4.722152467432e+02 
5 1 -1.531990525381e+02  -3.511952885133e+02  -3.182344682871e+02 
6 1 -2.359790400527e+02  -1.079727024273e+02  -2.187743015426e+02 
7 1 -5.987873307866e+02  -7.206085778169e+02  -2.893028997869e+02 
8 1 -6.693409166693e+01  -7.714949966598e+00   1.468123978896e+02 
8
Step 10000
1 1  1.884607157981e+02  -1.026202544906e+02  -1.759776232864e+02 
2 1 -4.201740397208e+02  -4.893947749781e+02   4.790602928244e+02 
3 1  2.183365340221e+01   3.756065000850e+02   8.221720090942e+01 
4 1 -6.976151798759e+01  -3.059850139124e+02   1.503798613853e+02 
5 1  3.895476901237e+02   1.636708467410e+02  -3.004427203147e+02 
6 1 -1.104830939351e+03   5.016456289549e+02   7.956942398662e+01 
7 1 -1.018451557166e+02   6.825753210911e+01  -7.879610715698e+02 
8 1  1.262145777369e+02  -2.020466110395e+02  -4.949460694876e+01 
8
Step 11000
1 1 -6.332654657499e+01  -3.125147404541e+01   9.700005958301e+01 
2 1 -1.956160313589e+02   2.090832514837e+02  -8.177380488355e+02 
3 1 -5.820831582792e+02  -9.473714480876e+01  -1.697674296565e+02 
4 1  1.702666242899e+02   3.229026511874e+02   7.578082153998e+02 
5 1  8.725526112084e+01   3.664713435367e+02  -1.860848824349e+02 
6 1 -1.069582501957e+02  -5.820679430101e+01   2.184379365404e+02 
7 1 -2.052972584950e+02  -4.325356653335e+02  -4.487602461386e+01 
8 1 -3.493529815465e+02  -4.959258021750e+02   1.852360671041e+02 
8
Step 12000
1 1  3.618493244487e+01  -4.712707742078e+02  -7.072447142798e+02 
2 1 -3.904296324493e+02   4.160777178171e+02   7.751670460795e+02 
3 1  2.392968994285e+02   3.846997413258e+02  -4.368590369993e+02 
4 1  3.301732303142e+02   3.049036882348e+02   1.004436774035e+02 
5 1 -4.765572564788e+02   3.469400761490e+02  -4.274556457890e+02 
6 1  9.917096508596e+01   3.175378410179e+02   2.623909106984e+02 
7 1 -4.756237365655e+02  -4.258774223828e+02  -7.062128229464e+02 
8 1  2.266174577876e+02  -6.217772300116e+02   5.322144853371e+02 
8
Step 13000
1 1 -8.752535204067e+01   4.288294303691e+02   7.492620919831e+02 
2 1  4.071001386636e+02  -3.509350423901e+02  -1.482365946143e+02 
3 1 -5.055668161687e+02   5.802225025147e+02   4.481818280830e+01 
4 1  9.676218368418e+00   7.691734063252e+02   2.065909345538e+02 
5 1  1.027297894660e+02  -3.126691905641e+02  -5.509237841213e+02 
6 1 -3.457599453020e+02  -6.389371568823e+02  -4.364558380546e+02 
7 1  5.613805741267e+01  -5.027637814365e+02  -2.978578746387e+02 
8 1 -4.970901703801e+02  -2.134124095189e+02   4.119451589709e+02 
8
Step 14000
1 1 -9.146343959082e+01  -2.882826907875e+02  -5.004233112670e+02 
2 1 -2.435083644335e+02   1.983423204829e+02   5.762164546429e+02 
3 1  1.261201380202e+02  -1.841363451982e+02  -1.250490768756e+02 
4 1 -1.997256736704e+02  -1.302817721375e+01  -1.066761277497e+01 
5 1 -5.591560660539e+02   5.209666158975e+01  -5.333911026238e+02 
6 1  1.247120085550e+02  -1.425082846746e+02  -9.378916270907e+01 
7 1 -1.381216926621e+02  -1.259121937062e+02   5.002938584342e+01 
8 1 -4.022582912139e+02   6.194832874032e+00   4.102070917470e+01 
8
Step 15000
1 1 -8.334278117842e+02   5.783084671229e+02   6.078268581945e+01 
2 1 -1.505110316152e+02  -1.405637602277e+02  -2.886101881530e+02 
3 1 -4.035585888917e+02   1.295105870734e+02  -3.623216984880e+02 
4 1  2.084238479769e+02  -6.864341410977e+02   4.442717460882e+02 
5 1  2.479031774580e+02   5.642172604346e+02  -2.615516472713e+02 
6 1 -3.689390331684e+02   2.764008240462e+00   1.145537273457e+01 
7 1 -3.289431889901e+02  -4.605256836903e+02  -1.172442781822e+02 
8 1 -1.080533564675e+02  -2.484036932513e+02   8.687789377912e+02 
8
Step 16000
1 1 -1.698970252669e+02   3.283054452140e+02  -3.419690092968e+02 
2 1 -1.930579260288e+02   6.534439592207e+02   3.948554276149e+02 
3 1  1.668908407915e+02   6.867573884195e+02   8.502364532970e+01 
4 1  3.495273917558e+02  -5.746830396067e+02   1.202133208753e+01 
5 1 -3.092890103734e+01   2.111842972564e+02  -4.652987726466e+02 
6 1 -3.544134985226e+02  -1.645098523722e+02  -4.995028701027e+02 
7 1 -3.975906709438e+01   2.867831453952e+02   4.588840502703e+02 
8 1  3.925499270502e+02  -5.521136356391e+02   1.779283261949e+02 
8
Step 17000
1 1 -4.138236310737e+02   4.423015350692e+02  -4.216195790862e+02 
2 1 -4.409198873920e+02   4.191788418200e+02   3.758194218106e+02 
3 1  1.907113655505e+01   3.965760487690e+02  -2.791088926380e+02 
4 1  1.419959521930e+02  -2.369686961145e+01   2.376401379552e+02 
5 1 -6.051410122838e+02   1.581455609524e+02  -1.879954003305e+02 
6 1  3.582608861943e+02  -6.491117103227e+02   4.066248366438e+02 
7 1 -8.441743063855e-01  -5.068396576558e+02  -2.995926660667e+02 
8 1  1.838420326934e+02  -3.626204048380e+02   5.204357137674e+02 
8
Step 18000
1 1 -4.340300145685e+02   8.348836550639e+01   1.695415050097e+02 
2 1  3.177455972840e+02  -2.619951699907e+02   1.013336295699e+02 
3 1 -1.071044037884e+02   1.467874964844e+02  -2.056941435906e+02 
4 1 -4.110063032561e+02   7.433601382244e+01  -1.054169108823e+01 
5 1 -3.622463230080e+02   2.264782941719e+02  -3.702125262878e+02 
6 1  1.351924078958e+02  -1.396738036391e+02  -3.833198334134e+02 
7 1  1.566419431539e+02  -3.458564508684e+02  -1.222578913888e+02 
8 1  2.857622356131e+02  -4.110845175204e+01   5.503077959550e+02 
8
Step 19000
1 1 -1.765985281421e+01   1.061830813104e+02  -3.147371511324e+02 
2 1 -5.471177118373e+02   1.685050134664e+02   3.087817654804e+02 
3 1 -3.325367544217e+02  -2.239026787949e+02  -4.932889795230e+02 
4 1 -1.125737012663e+00   2.046860754789e+02   1.578872154319e+02 
5 1 -2.956787307929e+01  -2.267573511479e+02   8.118564030644e+02 
6 1 -1.851047858143e+02   4.964522491643e+02   2.540630164928e+02 
7 1 -1.137304231214e+02  -1.187583706957e+02  -4.725036771874e+02 
8 1  3.015689101886e+02  -2.588131326895e+02   5.245109791535e+02 
8
Step 20000
1 1 -4.257883956987e+02   3.283540964839e+02  -1.540472532019e+02 
2 1  1.414475799926e+02   8.046072919408e+00  -2.287424518807e+02 
3 1  4.732859177014e+02   5.313518047607e+01   8.809843478213e+01 
4 1 -8.675511100353e+01   2.480350392971e+02   2.469707357786e+01 
5 1  1.746169945971e+02  -4.123740763554e+02  -2.656920401184e+02 
6 1 -5.914401670086e+02   4.778655050716e+02   4.009420056135e+02 
7 1  3.019636010129e+02  -8.663162039116e+02  -8.803013776789e+01 
8 1  2.410078100062e+01   2.861080216958e+02   3.292104434237e+02 
8
Step 21000
1 1  1.243883120784e+02  -1.046790275847e+02   1.132835239241e+02 
2 1 -5.252174821734e+02   1.215235730269e+03   2.988857253107e+02 
3 1  3.841478491821e+02  -3.231869657463e+01  -2.390852224747e+01 
4 1 -5.088454775264e+02   1.051680426894e+02   1.896851486249e+02 
5 1  1.823988576831e+01   2.548144806320e+02   3.544454156309e+02 
6 1 -2.829465897293e+02   3.872133433669e+02   9.797959155239e+01 
7 1  7.194191436733e+02  -4.020638010335e+02  -5.685298552954e+01 
8 1  8.233699648845e+02  -5.578808681700e+02  -1.090682243771e+02 
8
Step 22000
1 1  4.460597621330e+02  -4.592938596502e+02  -1.230739559879e+02 
2 1  1.880655149056e+02  -9.125201144737e+01  -8.911468786663e+01 
3 1 -3.605903966264e+02   6.669069738331e+02  -3.204171974408e+02 
4 1 -1.896191918967e+02   8.647583768023e+01   2.460149675893e+02 
5 1  1.434580424528e+02   2.608563435123e+02   1.878083424994e+02 
6 1 -3.697681969583e+01   2.586604225615e+02   7.719509575545e+01 
7 1  2.944683263632e+02  -6.208433859150e+02  -5.784286014495e+02 
8 1  3.091902970395e+02  -3.487754902046e+02   6.247931910185e+02 
8
Step 23000
1 1 -7.051186966064e+01  -1.355081252259e+01  -3.768419906531e+01 
2 1 -5.479338650275e+02  -3.272926383479e+02   2.326954379733e+02 
3 1  7.229681317219e+02  -3.740136382454e+02  -1.623836620734e+02 
4 1 -6.323558762400e+02  -4.670254501463e-01  -1.499865416921e+02 
5 1 -3.094908908848e+02   2.694308513767e+02   5.467877124045e+01 
6 1  3.755440712844e+02  -2.484132546804e+02   5.193200135316e+02 
7 1  9.480191879305e+00   5.605257441515e+02   2.337742523451e+02 
8 1  1.492351248173e+02  -1.942106375603e+02   6.925508142427e+01 
8
Step 24000
1 1 -1.703900980371e+02   4.230193130886e+01   3.496970244473e+02 
2 1  6.505288933025e+02  -3.118633796413e+02  -2.438163584717e+01 
3 1  3.240576173105e+02   8.312203757119e+01  -2.025256431751e+02 
4 1  8.632860435161e+02   8.700331009388e+01   2.880321678645e+01 
5 1 -6.295830779654e+01   3.132493290479e+02   4.708502632862e+02 
6 1  3.177626218416e+02  -7.073170822782e+02   3.167576586565e+02 
7 1 -5.981198837836e+02   5.914486096445e+02  -7.077247216016e+02 
8 1 -2.604216014769e+02   1.274502757575e+02   1.738802831682e+02 
8
Step 25000
1 1  2.126992274391e+02   3.397047084411e+02  -2.879778426976e+02 
2 1 -8.864198262394e+01   4.182592952625e+02   2.315764681668e+02 
3 1  1.911562343912e+02   1.104663083913e+02   2.805029376504e+02 
4 1  3.227908900985e+02  -6.469575435571e+02  -3.432460677443e+02 
5 1 -2.328612206659e+02   1.294448942601e+02   3.910819347904e+02 
6 1  4.911260028279e+02   4.338230760778e+02   1.284240609479e+02 
7 1 -9.988590844466e+01  -5.015002549435e+01  -1.056464659556e+02 
8 1  4.898331723857e+02  -6.401100137063e+01   5.243711761953e+02 
8
Step 26000
1 1  3.858036371643e+02  -5.771881447202e+02  -1.569114728276e+01 
2 1  3.334308799040e+02  -5.905382314167e+01  -5.563632639924e+01 
3 1 -1.876559696632e+02  -6.172697312781e+02  -2.574729392430e+02 
4 1  1.919787697073e+02   3.417165963462e+02  -2.605393859436e+02 
5 1  3.991322271779e+02   2.503227181107e+02   4.104747052423e+02 
6 1  4.342124283481e+02   3.764863377558e+02  -6.793501934218e+01 
7 1  2.133252290834e+02   1.140187564051e+02   3.438372437261e+01 
8 1 -2.190958421773e+02  -3.166612242174e+02   2.574764172735e+02 
8
Step 27000
1 1 -1.388510718914e+02  -4.601702426484e+02  -2.133312750011e+02 
2 1  4.535552040822e+02  -2.769252555159e+02   3.513293357234e+02 
3 1  8.849559813456e+02   1.808571575231e+02   4.722664929529e+02 
4 1 -1.134074301322e+02  -3.538958456261e+02  -4.246525949985e+02 
5 1  1.181041446360e+00  -2.944237017049e+02   2.958845970463e+02 
6 1  3.067536651461e+02   1.906959776563e+02   1.402350697823e+02 
7 1 -9.144913199847e+01   1.078050001002e+02   1.072697036582e+02 
8 1 -1.942199505348e+02   1.008546441921e+03  -2.233537675721e+02 
8
Step 28000
1 1  1.144809072156e+03  -3.641000326973e+02   2.734801759633e+02 
2 1 -5.008119880506e+02  -4.942115482581e+01   1.607768756622e+02 
3 1  9.795802374776e+02  -1.006144193562e+03  -5.091257250917e+02 
4 1 -2.286385280224e+02   7.084713794246e+01  -3.317436810436e+02 
5 1  2.500487785141e+02  -3.195909842983e+02   4.388773147363e+02 
6 1 -2.907054782113e+02   3.711323555737e+02  -2.931324324757e+02 
7 1 -3.474106105232e+02  -1.074822023445e+02  -6.029094875616e+01 
8 1 -4.671132626858e+02   4.455903209688e+02   4.030618121074e+02 
8
Step 29000
1 1  3.917404126364e+01   8.482104510109e+02  -1.638373148428e+02 
2 1  4.951798962099e+02   2.749762219012e+02   4.671467161317e+02 
3 1  3.159438389406e+02  -2.418384889470e+02  -5.320443324780e+01 
4 1 -3.067640513271e+02  -1.946956650457e+02   1.378538205947e+02 
5 1  1.076527807532e+02  -5.241504687795e+02  -1.475497895531e+02 
6 1 -3.253268086489e+02  -8.407742573244e+01   8.484248316631e+01 
7 1  4.422402002702e+02   3.887600395769e+02  -6.263288280828e+02 
8 1  6.946444447196e+02   1.688087430376e+02   7.004203754972e+02 
8
Step 30000
1 1  6.678374794898e+02   1.233071745362e+00  -1.214681038192e+02 
2 1 -1.186646819898e+02  -2.201419285092e+02  -4.350723571201e+02 
3 1  5.516948218116e+02  -1.340673553264e+02  -7.769939578185e+01 
4 1  9.444591541100e-01   2.235237584901e+01  -1.036351338673e+02 
5 1 -9.070814472665e+01  -2.934462718413e+02   9.753021396525e+01 
6 1  8.055671481967e+02  -1.926169789438e+02   6.025370015464e+02 
7 1 -2.763832960762e+02   3.632112493473e+02  -1.660384887894e+02 
8 1  3.107424374100e+02   2.579737565216e+02   1.078235420320e+02 
8
Step 31000
1 1  1.832940561947e+02   4.086453237459e+01  -9.086603100185e+01 
2 1  3.229250705094e+02   3.364207511524e+01   3.263822324762e+01 
3 1 -2.418202961662e+02  -5.045847988877e+02  -2.649511599654e+02 
4 1  3.670844376236e+02  -3.448594398727e+02  -2.138395778899e+02 
5 1 -4.833092507886e+01  -1.788191837320e+02   2.272269913167e+02 
6 1 -5.460089680081e+02   5.930489053106e+01   4.841467220136e+01 
7 1  4.460091264728e+02   5.830092386343e+02  -7.556818540944e+02 
8 1  2.396726911767e+02  -1.876226592372e+02   7.207740863776e+02 
8
Step 32000
1 1  1.489364812464e+02  -1.401820659604e+02   4.236787225715e+02 
2 1  5.955516994352e+02  -4.871488238737e+02  -3.016779062420e+02 
3 1  7.769508668348e+00   9.061968498738e+01   2.173985769128e+02 
4 1 -1.367038973258e+02  -3.875741465571e+02  -4.358999680218e+02 
5 1 -3.247837345448e+02   3.244854402393e+02   4.473277584080e+02 
6 1 -1.005828299728e+02  -6.087330901484e+01   1.898643723871e+02 
7 1 -3.727494183915e+02   1.395070277529e+02  -8.224452265807e+02 
8 1  4.412974561157e+02  -4.027502419601e+02   2.077420527801e+01 
8
Step 33000
1 1  4.024857539010e+02   3.011098112721e+02   2.899290754789e+02 
2 1  4.677964571654e+02   9.778585946688e+02  -6.695625764674e+02 
3 1  7.671036397497e+01  -2.015044803040e+02   5.994378886387e+02 
4 1 -1.254249323111e+02   4.072329471899e+01  -4.338222629597e+02 
5 1 -6.026983166149e+02  -3.943206332080e+02   2.009064830179e+02 
6 1 -2.375167369237e+01  -3.032100644475e+01  -1.040523139150e+01 
7 1  3.044933526969e+02  -1.969998854768e+02   1.500444248964e+02 
8 1  7.799918135430e+01  -9.955776306570e+01  -4.012896843181e+02 
8
Step 34000
1 1  1.653711602042e+02   3.126005922469e+02  -5.450511710972e+02 
2 1 -2.843667977692e+02  -3.349634601258e+02  -3.758668524914e+02 
3 1 -3.932256189194e+01   1.084371690553e+02   1.884781222922e+02 
4 1  1.297273433351e+02  -2.483188396545e+02  -4.079370628385e+02 
5 1  1.342077352203e+02  -7.790922700590e+02   7.986552249369e+02 
6 1 -5.380801602153e+02  -2.191305060068e+02   4.848585361565e+01 
7 1  2.418688491691e+02   3.116093874591e+02  -1.820413510487e+02 
8 1  5.655740397161e+02   3.390174589625e+02   4.256593411840e+01 
8
Step 35000
1 1  3.447299357812e+02  -1.892420503105e+02  -1.804899960779e+02 
2 1 -1.946448306412e+02   5.093189501667e+02  -3.475293115911e+02 
3 1  3.363748352313e+02  -3.097878250239e+02   1.954025919212e+02 
4 1  4.329529927024e+01   1.922686412885e+02   8.326063703413e+01 
5 1 -1.523458204768e+01   1.858983508855e+02   3.947266047924e+02 
6 1  3.298741535521e+02  -4.498233470713e+01   2.128065022555e+01 
7 1 -5.489076329273e+02  -1.409673083359e+02  -2.412019473641e+02 
8 1  4.529170318863e+02   1.786907279917e+02  -6.930824430334e+02 
8
Step 36000
1 1 -4.224546719296e+02  -2.145200760113e+02  -4.100974949808e+02 
2 1  6.642996225405e+02  -7.267437548386e+02  -1.514620080868e+02 
3 1 -7.901926835635e+02  -7.636745138090e+01   1.444106765991e+02 
4 1 -2.494393560027e+02   8.362400612224e+01  -5.111529317173e+02 
5 1  2.514407772465e+02   1.718439440265e+02   5.414973813097e+01 
6 1 -1.940628438519e+02   3.990078210877e+02   2.898709964726e+02 
7 1  1.149105566646e+02  -4.871608970048e+02  -4.037043660179e+01 
8 1 -4.588074826861e+02  -2.609034212299e+02   1.825459839257e+01 
8
Step 37000
1 1  4.801516801920e+02   2.599948578027e+02  -1.152540553800e+02 
2 1 -3.686069554670e+02   2.237841941283e+02   1.760313511411e-01 
3 1 -4.365164124943e+02   2.785457306172e+01   5.203609563978e+02 
4 1 -1.406548631376e+02   1.569251856679e+02   8.593076141252e+01 
5 1  8.513865731362e+01   2.120774117639e+02   1.252978505632e+02 
6 1  2.659313723411e+02  -5.884873582722e+02  -1.403330083600e+02 
7 1 -4.245163191434e+02  -2.026932148003e+02  -8.322385025750e+02 
8 1 -3.993433822296e+02  -2.197079381468e+01  -4.461414364006e+02 
8
Step 38000
1 1 -6.224217347008e+02  -1.060547830863e+02  -2.607258140252e+02 
2 1  4.878905275912e+02   7.600970852205e+01  -4.363954282928e+02 
3 1 -5.323019668894e+01  -3.280741095147e+02   1.248873682124e+02 
4 1 -2.862559474367e+02   9.493081829342e+01  -3.209695487957e+02 
5 1  4.730910415109e+02  -2.126974264585e+02   3.811590991535e+02 
6 1 -2.303115587303e+02   8.160669759374e+02   4.271078042441e+02 
7 1 -2.821257890694e+02  -1.148333176097e+02  -6.799697205453e+02 
8 1 -9.505035175748e+00   2.133928815512e+02   5.055887938589e+02 
8
Step 39000
1 1 -4.465109253864e+02   1.132796693958e+02  -9.960558346629e+01 
2 1 -4.794515609548e+02  -1.611501782492e+01  -7.291043119310e+02 
3 1  3.727267065499e+02  -2.986031274592e+02   3.923206722970e+02 
4 1 -4.862917756302e+01   3.277340048864e+02  -4.537390809038e+02 
5 1  4.519346784616e+02  -8.600766163328e+01   3.808005630129e+02 
6 1 -7.991084792888e+00   2.213040419870e+02  -2.612190896863e+02 
7 1 -1.103356738811e+02   1.195014135956e+02  -5.035154065993e+02 
8 1 -2.302479484262e+02  -2.086434163555e+01   2.698555740806e+02 
8
Step 40000
1 1 -4.160545211759e+02  -1.880634677841e+02   2.640859295074e+02 
2 1  1.228863544338e+02  -8.273495014935e+02  -4.055372900420e+02 
3 1 -5.929125734372e+02  -1.184820459069e+02   4.313095977958e+02 
4 1 -5.936601803464e+02   4.025091539977e+02  -2.213725550166e+02 
5 1 -5.105083437481e+02  -3.298968794180e+02  -4.848120997776e+02 
6 1  4.631544072796e+02   7.387461869434e+01   6.160390742605e+01 
7 1  3.371126655540e+01   2.290445060099e+02   2.401680914322e+01 
8 1 -1.898026171558e+02   3.486490488821e+02  -7.862339771446e+01 
8
Step 41000
1 1 -1.801546612135e+02   3.080512529202e+02  -6.308670669346e+01 
2 1  3.528386453542e+02  -5.693053051181e+02   2.373676569007e+02 
3 1 -8.706012907426e+02   1.795514796311e+02   2.705670627209e+02 
4 1 -7.919651226130e+01   5.340258292283e+02  -2.999574901771e+02 
5 1  4.002590530158e+02   4.761110718175e+02   5.022241548243e+02 
6 1 -1.493941659378e+01  -1.601320409933e+02  -7.203218066753e+02 
7 1 -9.593540995490e+02   2.723453178251e+01  -8.809077531767e+02 
8 1 -1.047165216488e+02  -3.650874604869e+02   2.397695812032e+02 
8
Step 42000
1 1 -2.858713220703e+02  -2.568942171611e+02   5.467564448372e+02 
2 1 -2.656039087338e+02  -4.203713526417e+02  -2.908251512374e+02 
3 1 -2.841583715478e+02  -9.026427299206e+01  -1.393276760771e+02 
4 1  1.743868335503e+02  -4.024135430807e+02  -1.960168652125e+02 
5 1 -7.509961295707e+02   6.481188339518e+02  -2.859452695512e+02 
6 1 -4.216528554325e+01   3.173112520667e+01   3.479395746872e+02 
7 1 -3.704945075636e+02   7.484155195375e+02   4.004371743107e+02 
8 1 -2.335785294132e+02  -3.710835561744e+01  -3.040269310205e+02 
8
Step 43000
1 1 -1.074003616840e+02   4.923951501615e+02  -1.818585239246e+02 
2 1  3.929548805475e+01  -5.678399668088e+02   1.731354640084e+02 
3 1 -4.794791390018e+02   7.391400683304e+02   2.861387858718e+02 
4 1  4.583040774223e+02  -4.867937424101e+02  -1.906511507191e+02 
5 1  1.586497244535e+01   2.849390874062e+00  -1.116914818878e+02 
6 1  1.329836478348e+02   8.756671057893e+01  -1.967718635377e+01 
7 1 -3.547085901048e+02   5.769588201091e+02  -4.090446298370e+02 
8 1 -1.073264695462e+02   3.173912696606e+02  -3.141749430906e+01 
8
Step 44000
1 1 -2.626230816618e+02  -3.559285599599e+02   2.468520579260e+02 
2 1 -4.083421993014e+02   4.836579660004e+02  -1.673807851515e+02 
3 1 -1.758255874652e+02  -4.640017410083e+02   6.686078158242e+01 
4 1 -9.713317162336e+01  -5.230864058259e+00  -9.154275231189e+02 
5 1 -3.796114200119e+02  -2.156111637389e+02   2.854563268657e+02 
6 1 -3.818541534524e+02  -3.924664484174e+02   1.905831622700e+02 
7 1 -1.874108727714e+02   7.309033373764e+02  -4.317761537528e+00 
8 1  4.993584721259e+02   5.649156965169e+02   5.082654610764e+02 
8
Step 45000
1 1 -2.203540176913e+02  -2.581092669852e+02   3.813605500722e+02 
2 1 -9.816762347821e+01   3.376590489502e+01  -4.040825612854e+02 
3 1 -6.596954447486e+02   3.643747900171e+02   6.792803959127e+02 
4 1 -5.795240506929e+01   2.274932613041e+02   2.532525390714e+02 
5 1  1.370821042540e+02  -6.784522168791e+02  -1.802037672066e+02 
6 1 -6.569794991963e+02   1.618008306972e+02  -2.230318494230e+02 
7 1 -5.044370247029e+00  -4.826210857553e+02  -5.508052845174e+02 
8 1 -1.601205678313e+02   4.619255764224e+02  -3.228078108784e+02 
8
Step 46000
1 1 -3.059785844521e+01   1.504570112305e+02   3.452318788673e+02 
2 1  8.252994102644e+01  -2.200080111519e+02   8.295490335649e+01 
3 1 -2.983921480898e+02  -2.435138682156e+02   9.755720475072e+02 
4 1 -3.783479351375e+01   1.045081430896e+03  -7.073709167354e+02 
5 1 -2.061479462071e+02  -2.334862733130e+02   3.926886155353e+02 
6 1 -3.053018362055e+02   9.411340758284e+01   6.069516681855e+02 
7 1 -4.368540207479e+02  -1.326130465049e+02  -3.857809294440e+02 
8 1 -1.751941258472e+02   4.088700227338e+02  -4.666440677591e+02 
8
Step 47000
1 1 -8.898652592683e+02   1.398474768221e+02   2.734679049379e+02 
2 1  3.692086488877e+02   1.343148186833e+02  -1.983436375422e+02 
3 1  4.443260179622e+02  -1.342585002856e+01  -3.466268585128e+01 
4 1 -4.468313841320e+02   3.866920438943e+02  -1.925400181896e+02 
5 1  3.220320284730e+02  -1.281249243118e+02  -3.932951788375e+02 
6 1  1.629930628426e+02   5.117754915467e+02   6.335417966020e+02 
7 1 -3.440698628829e+01  -3.377412463162e+02  -1.402546831578e+02 
8 1 -1.396688189334e+02   1.056311913368e+02   2.081361016129e+02 
8
Step 48000
1 1 -6.878490217304e+00   4.440132121928e+02   1.441233562248e+02 
2 1 -3.097634998923e+02  -2.241099129047e+02   5.172568192659e+02 
3 1 -6.938174952475e+02  -6.416331451641e+01  -2.911909414246e+02 
4 1  2.449416892078e-02  -5.295024516459e+02   1.095668501300e+02 
5 1  2.833811872526e+02   5.722337541043e+01   4.190541063182e+01 
6 1 -2.034223827734e+02   4.929541551573e+00   3.059402173553e+01 
7 1  1.686503515269e+02   2.957155624867e+02  -4.585993472758e+00 
8 1  3.245313940807e+02   5.086074525927e+02   2.786738485458e+02 
8
Step 49000
1 1  5.748426437296e+02  -5.353757759119e+01   5.029512362391e+02 
2 1 -6.162511153086e+01   6.756528723380e+01  -2.176275088807e+02 
3 1 -5.478890363508e+02   3.704410290871e+02   9.926003514302e+01 
4 1 -1.988360341656e+01  -3.521257217872e+02   1.966480169160e+02 
5 1 -2.443316208825e+02   5.842537561535e+02   5.733205512557e+01 
6 1  4.065358079777e+02  -2.114216796626e+02   2.460338883901e+02 
7 1 -1.785323490459e+00   5.094431161755e+02  -5.894134679919e+02 
8 1 -5.807068400624e+01  -8.724948084083e+02  -2.288906957857e+01 
8
Step 50000
1 1 -2.609213046301e+02   1.876701158314e+01   2.658849759494e+02 
2 1  1.686795746158e+02  -7.626984450149e+02   1.059534898223e+02 
3 1 -9.110792414887e+01   6.103842044371e+02   4.084361057938e+02 
4 1 -1.697985397318e+02   3.674124619222e+02   5.699069988016e+01 
5 1  4.856203354508e+01   6.170372494577e+02  -7.461249555886e+01 
6 1 -1.539619054426e+02  -4.400291894431e+02  -3.945013176221e+02 
7 1 -3.058002477304e+02  -1.131543866125e+02  -8.498367761364e+01 
8 1 -7.900937440522e+01  -3.250346204564e+02   8.242875028307e+02 
8
Step 51000
1 1 -2.388435670406e+02   3.980733844964e+02   4.585693546652e+02 
2 1 -3.097148994368e+02   1.966883014228e+02  -2.292987669099e+02 
3 1 -2.326399612506e+02   8.091990800886e+01   5.366452329918e+02 
4 1  6.633458652503e+02  -1.695483559836e+02  -6.793549723319e+02 
5 1 -3.641639199975e+02   5.511974962713e+02  -4.522410548465e+01 
6 1  4.681939220189e+02  -4.830871542365e+02  -1.804140866355e+02 
7 1  5.176822883052e+02   1.734861134086e+02   4.452760917688e+02 
8 1  2.105856954193e+02  -5.482284923443e+02   3.321927325257e+02 
8
Step 52000
1 1  1.363941641231e+02   8.458482594013e+02   2.300016151463e+02 
2 1  8.014081945459e+01  -9.783843885231e+01  -3.732553667498e+02 
3 1 -3.801807856235e+02   4.162210551906e+02   4.096615381103e+01 
4 1  6.526161609871e+02  -7.341263193177e+02   3.033888181621e+02 
5 1  2.703072970064e+02  -1.831720285447e+01   1.774167889996e+02 
6 1  4.807405446622e+02   6.909765745984e+02  -4.172917819750e+01 
7 1  3.579788328168e+02   9.101384823911e+01   9.739913906793e+01 
8 1 -1.694799908400e+02  -3.751413807287e+02   7.215019720875e+02 
8
Step 53000
1 1  4.632413518249e+02  -2.272872494440e+02   2.451856785739e+01 
2 1 -3.607358880246e+02  -2.384923583053e+02  -2.688878754056e+02 
3 1 -2.269976714395e+02  -2.839581718807e+02  -2.213811899436e+02 
4 1 -4.329878639127e+01   1.481046115518e+02   1.415330904049e+02 
5 1  2.957288204959e+02  -4.850893214201e+02   2.927690017867e+02 
6 1  5.568615173141e+02   2.863094629568e+02   3.742316212803e+02 
7 1  4.761967408115e+01  -3.058173851695e+02   1.820257763449e+02 
8 1  2.145710329990e+02   2.283272919516e+01  -2.077304802929e+02 
8
Step 54000
1 1 -1.522970399031e+02   7.095316075266e+01   3.293185688046e+02 
2 1  4.897670331727e+02   6.418619280099e+02   5.546365685748e+02 
3 1 -2.393234073708e+02   4.045960327630e+02  -1.542946511409e+02 
4 1  6.316047071417e+02  -4.519579400378e+02   2.562002241906e+02 
5 1  3.399618642747e+02  -5.366421260506e+02  -4.130602859051e+02 