8
Step 0
1 1  3.023859026055e+02   2.378816802784e+02  -9.555576813497e+01 
2 1  2.697713000661e+02  -2.546322453998e+02  -6.199506671967e+02 
3 1 -6.255592878208e+02  -1.652719680071e+02  -4.327187349958e+02 
4 1  1.094359229731e+02  -2.812415677186e+02   5.182986855887e+02 
5 1  6.418775273896e+01  -4.157455463467e+02  -2.316845659138e+02 
6 1  2.785438408206e+02   2.531813734805e+02   6.452012672630e+01 
7 1  1.707535445606e+02  -1.773918968688e+02  -4.312858342593e+00 
8 1 -5.187397608193e+02   9.509279551745e+01  -3.168950203061e+02 
8
Step 1000
1 1  1.786946950591e+02  -1.998952327792e+02  -4.646144819544e+01 
2 1  1.468311166755e+02   9.089905766116e+01  -8.313829062997e+01 
3 1 -1.772782933178e+02   3.817216160068e+02  -5.436011160965e+02 
4 1 -1.692872408184e+02  -1.353418128182e+01  -2.677719047495e+02 
5 1  2.738078129394e+01   1.482737723941e+02  -5.116470328096e+02 
6 1 -2.313132159872e+02  -2.234630867073e+02   2.551557913928e+02 
7 1  3.866433303861e+02   2.302321054107e+02   3.929837265092e+01 
8 1  6.134790177697e+02   3.620934227156e+02  -2.261126267600e+02 
8
Step 2000
1 1  2.511541831694e+02  -1.081161790296e+02  -7.074793258960e+01 
2 1 -5.688420977564e+00  -1.156429404936e+02  -2.315644737866e+02 
3 1 -6.027630596188e+01   7.410158514929e+01   4.748174107270e+01 
4 1 -1.642185455489e+01  -2.169674549890e+02   2.427435531788e+02 
5 1  7.889488206393e+01  -2.451540711343e+01  -5.166999376280e+02 
6 1  4.545829396937e+00   1.048537860569e+02  -1.428364213156e+02 
7 1 -2.212692092704e+02   2.078580813278e+02  -3.665029004360e+02 
8 1 -8.359797673045e+01  -1.231053560949e+02  -2.337325845613e+02 
8
Step 3000
1 1  2.536298502614e+01   2.233706529709e+02   8.128682105191e+00 
2 1  5.237866615567e+01  -2.730448394880e+02  -3.180801085294e+02 
3 1 -7.354683950015e+01   2.301347134133e+02  -2.049716630495e+02 
4 1  1.122985906684e+02  -5.070813083868e+02   3.177841677452e+02 
5 1  1.948446786931e+02   3.179697171218e+02  -1.521049333461e+02 
6 1 -7.659349506008e+01   1.935725725093e+02  -1.355313198364e+02 
7 1 -1.686157405587e+02   7.057155951909e+01  -3.643708780638e+02 
8 1 -3.792326401048e+02   2.323692640996e+02  -5.109684265560e+02 
8
Step 4000
1 1 -1.978229329904e+02   2.199166269558e+02  -5.363740945953e+02 
2 1  5.049999223338e+01  -2.682474297454e+02  -1.257258711031e+01 
3 1 -7.000264414955e+01  -4.961267038644e+01   1.754050744952e+02 
4 1  9.551068443372e+01  -3.777742262374e+02  -6.399356651947e+01 
5 1 -1.114520816725e+02   1.168491168072e+02  -2.481081238426e+02 
6 1 -2.073697029559e+02   2.126660594754e+02  -2.148839983895e+02 
7 1 -2.480483789236e+02   7.854889625411e+01  -1.892551208050e+02 
8 1 -2.980035565962e+02   2.677782312639e+02  -1.805267098784e+01 
8
Step 5000
1 1  1.113466101419e+02  -1.660044751097e+01  -5.216641711782e+00 
2 1  1.285459570369e+02   3.210528893794e+02  -5.178604113541e+02 
3 1 -2.748742083702e+02   2.510984609645e+02  -2.455204587231e+02 
4 1  1.982257933714e+02   2.639083009398e+02   2.750115349069e+02 
5 1 -3.277011671005e+02   2.066300543297e+02  -2.674653008051e+02 
6 1  2.452456839671e+02   6.054173708547e+02  -2.179357867509e+02 
7 1  2.517789682480e+02   1.058910939082e+02  -2.910551422019e+02 
8 1  1.756497993998e+02   8.726351471969e+01  -2.621310915276e+02 
8
Step 6000
1 1 -1.461194975764e+02  -1.286448537462e+02  -2.839252286522e+02 
2 1  6.482825679135e+01  -1.789590535081e+02  -2.585346443944e+02 
3 1 -3.182405047592e+02   3.411419230789e+02   9.946188454208e+01 
4 1 -7.091688765402e+01   1.688881984588e+02   3.567793685331e+02 
5 1 -8.639354639190e+01   4.006320312802e+02  -4.230204726343e+02 
6 1 -3.598001792226e+02   4.572196110719e+01  -9.779466586762e+01 
7 1  2.922419848852e+02   6.649770778823e+01  -3.240741275203e+02 
8 1 -2.740115751513e+02  -9.907607362068e+01  -3.535565362225e+02 
8
Step 7000
1 1 -6.592340960979e+00  -8.875576447313e+01  -1.155234180735e+02 
2 1 -1.252689522984e+02   3.426561796227e+01   6.069890594847e+01 
3 1 -4.932105656639e+02   3.977321412131e+02  -2.218635153025e+02 
4 1  1.688148651435e+02  -1.029354850980e+01   5.579322345687e+02 
5 1  1.674190720030e+02   3.386042618345e+02  -5.163788914870e+02 
6 1 -1.018080665286e+02   3.849633058414e+02  -4.129027607600e+02 
7 1 -3.052448083057e+02   1.842824109153e+02  -4.696296294480e+02 
8 1  2.089229638160e+02   1.718680224700e+01  -2.713542165509e+02 
8
Step 8000
1 1 -7.705081823218e+01   1.968628018283e+02  -2.746989634724e+02 
2 1 -2.695581340311e+02  -2.783749256959e+02  -1.405545523516e+02 
3 1 -2.330964754796e+02   5.073063448007e+01   1.895525030930e+02 
4 1 -5.842008178862e+01  -4.722218924469e+02   7.094190994013e+02 
5 1 -4.512652889561e+01   4.980427158842e+02  -6.193403014833e+02 
6 1 -4.643498700114e+02   3.933905082317e+02  -7.545967244955e+01 
7 1 -3.269482561461e+02   5.885008379991e+02  -2.041486473750e+02 
8 1  1.637611029945e+01  -3.267036793049e+02  -9.103743821832e+01 
8
Step 9000
1 1 -3.867217978535e+02   5.793442006997e+01  -3.970300706321e+02 
2 1  1.519046499007e+02   1.084690582910e+02  -3.636718137198e+02 
3 1 -1.456177586968e+02   5.877454865981e+02   7.905945703706e+00 
4 1 -1.480946048012e+02  -4.559384337325e+02   1.143777053683e+02 
5 1  2.732631583731e+02   3.806823209547e+02  -2.998603221822e+02 
6 1 -1.008843246615e+02   1.666158682753e+02  -1.448355624686e+01 
7 1  1.948013550275e+02   4.145085406125e+02  -3.091709643361e+01 
8 1 -7.052138178901e+01   2.075789775515e+02  -9.507235265459e+01 
8
Step 10000
1 1 -1.539194341062e+02  -1.740619756374e+02   7.941135765193e+01 
2 1 -5.400200869644e+01  -1.970534868327e+02   9.658409508826e+00 
3 1 -2.991746627884e+02   7.005495753113e+02  -1.980335694835e+02 
4 1 -6.130163597176e+01   1.782844174640e+02   8.705378494798e+02 
5 1 -1.328332839377e+01   6.968431799774e+02  -1.416481354235e+02 
6 1  2.358423485450e+02   3.397918252730e+02  -2.858153539138e+02 
7 1 -2.246891052531e+01  -1.714930506653e+02  -2.920556167295e+02 
8 1  9.359546692663e+01  -1.054144228243e+02   3.926500260318e+01 
8
Step 11000
1 1 -1.603565858369e+02  -3.683580842709e+02  -9.719723672646e+00 
2 1 -5.936165814804e+01   3.463934746014e+02  -1.080170722661e+02 
3 1 -6.502715306451e+02   5.593418275080e+02   6.661136234815e+01 
4 1  3.679848350708e+02   1.555811908500e+02   7.065221756061e+02 
5 1  1.064342299206e+02   4.234181745305e+02  -5.261702371482e+02 
6 1 -1.180635290688e+02   1.644073122707e+02  -3.608107272286e+02 
7 1  2.071548808536e+02  -1.508717224611e+02  -1.175464866127e+02 
8 1  9.022669824071e+01  -1.666072156626e+02   6.375266310742e+01 
8
Step 12000
1 1 -7.793131237126e+01  -1.720432433415e+02  -2.132499873510e+02 
2 1 -3.874977781758e+02  -2.408952407110e+02   4.781058399065e+02 
3 1 -3.917819618042e+02   6.301044405552e+00   6.848667764768e+01 
4 1  1.222203547002e+02  -1.729582802401e+02   5.580392866709e+02 
5 1 -2.702111303702e+02   1.799731608365e+02  -3.317232060216e+02 
6 1 -3.894103197604e+02   2.817132517455e+02  -2.243385232702e+02 
7 1  1.323048485844e+02  -2.103350656615e+02   1.577604049603e+02 
8 1 -3.202931436417e+02   2.683615475146e+02   8.232112048260e+01 
8
Step 13000
1 1 -1.623849834036e+02   3.305307814436e+01   1.322847587430e+02 
2 1  1.241861372034e+02   1.075181553538e+02  -3.016606765103e+02 
3 1 -4.882953424990e+02   3.798784199226e+02  -4.123396738294e+02 
4 1  1.645147673926e+02  -2.544976251039e+02   1.017280179010e+03 
5 1  5.647997439348e+02   1.901837971087e+02  -3.437681863184e+02 
6 1 -2.411098946977e+02   5.627495907602e+02  -1.613937779100e+02 
7 1 -1.540033247980e+02   2.573847785043e+01   2.775551335241e+01 
8 1  7.054184773471e+01  -1.632103009851e+02   1.549917667254e+02 
8
Step 14000
1 1 -2.422438438852e+02  -1.592722181657e+02  -1.307179810841e+02 
2 1 -7.696516331110e+01   2.560750460487e+01   4.491133134076e+02 
3 1 -2.308352256066e+02   7.458288148007e+02   2.789012816976e+02 
4 1  7.033268162183e+01  -2.366265235067e+01   3.302588867586e+02 
5 1  5.390847106455e+02   4.932383748999e+02  -1.647939508102e+02 
6 1 -1.811744854616e+02   1.267573236694e+02   1.161790623849e+02 
7 1 -3.115782726491e+02  -7.157113081544e+01   2.623322336630e+01 
8 1  3.195181926529e+02  -4.479773380091e+02   3.053436900568e+02 
8
Step 15000
1 1 -7.692838300791e+01  -2.724683356663e+02   9.749251016499e+01 
2 1 -3.458941035298e+02   2.157960261066e+02   1.210217756763e+02 
3 1  4.324240952836e+01   6.918207949086e+02  -2.767885567772e+01 
4 1 -2.055370481091e+02   7.650842410474e+01   4.435205084913e+02 
5 1  4.738592570937e+02   3.961514242492e+02  -3.113488103439e+02 
6 1 -5.729556378552e+01  -4.962380030603e+01  -1.352569102059e+02 
7 1  1.040636726391e+02  -2.270394880804e+02  -3.138127321614e+00 
8 1  1.748866959935e+02  -5.092721068329e+02   4.354000139484e+02 
8
Step 16000
1 1 -2.776975692900e+02  -1.775552954442e+02   6.960337136271e+02 
2 1  8.198269296626e+01  -2.048673812548e+02   2.924422073445e+02 
3 1 -4.992729361187e+02   4.179621472263e+02   1.926524060081e+02 
4 1  1.469374849446e+02  -1.213757781762e+02   4.539274383176e+02 
5 1 -2.622899437045e+02   5.341342702140e+02  -8.372564355694e+01 
6 1  4.837033307455e+00  -4.710718339679e+01   2.741367193928e+01 
7 1 -4.326637301066e+01   1.325485227936e+01   6.405837382889e+01 
8 1  7.639582705956e+01  -4.376571547325e+02   1.227298232403e+02 
8
Step 17000
1 1  1.073695943195e+01  -1.366671089769e+02   4.876187051036e+01 
2 1 -7.294635975754e+01   2.141786536657e+02   2.421583337818e+02 
3 1 -3.110825660914e+02  -1.397440858647e+02  -4.999331364037e+02 
4 1 -1.477842176218e+02  -2.626158071488e+02   2.761776127477e+02 
5 1 -2.724672282085e+01   2.280610734080e+02   1.341612785600e+02 
6 1  2.384298794497e+02  -1.771379297482e+02   2.403021016394e+02 
7 1 -2.426526373824e+02  -2.562680218014e+02   2.551890881112e+01 
8 1 -1.082802532991e+02  -3.828546180348e+02   4.796546753557e+02 
8
Step 18000
1 1 -1.510035392451e+01   2.413792113935e+01   9.662593383472e+01 
2 1 -1.199381628722e+02   2.428362624342e+02   6.177298431723e+02 
3 1 -2.730395303911e+01  -1.174434915588e+02   2.002766768036e+02 
4 1  6.408771303217e+02  -3.330236713107e+01   4.341624275252e+02 
5 1  4.287884165681e+02   2.249662218251e+02  -6.156643759015e+01 
6 1 -4.068379029569e+02   2.553778946141e+02  -1.475859973729e+01 
7 1  3.308138514545e+01  -1.635815777838e+02   3.074914715908e+02 
8 1  4.215519655873e+01  -3.916369412055e+02   2.786967123872e+02 
8
Step 19000
1 1 -1.520404795988e+02  -1.268418205185e+02   9.188119468617e+01 
2 1 -1.225897401765e+01   3.468434384098e+02   3.257508222366e+02 
3 1  3.214018396197e+01   5.588131130739e+02   1.780599948271e+00 
4 1  3.101764988930e+02  -6.609011634049e+01   1.408563667739e+02 
5 1  1.657786789371e+02   2.374600739687e+02  -2.427963247197e+02 
6 1  3.181606185650e+02   1.660303878932e+02   2.566350110179e+02 
7 1  2.634665807656e+02  -5.901970280751e+02   4.316036641559e+02 
8 1  1.658092270990e+02  -6.856592295021e+02   4.296195405200e+02 
8
Step 20000
1 1 -9.961810261113e+01  -1.969235777653e+02   4.899936184854e+02 
2 1  1.953858276913e+01  -3.011941389160e+02   7.497153660185e+02 
3 1  2.456844474843e+02   3.144779333240e+02  -1.615916474916e+02 
4 1 -5.390047034058e+02  -1.210698442200e+02   1.348310947601e+02 
5 1  5.297185162249e+02  -4.215046579589e+01  -1.111686417703e+02 
6 1 -1.550010436119e+02   2.110738221728e+02   2.967030176425e+02 
7 1 -1.663052642288e+02  -2.154413370157e+02   5.382018105251e+01 
8 1  3.952779952371e+02  -5.221601689414e+02   3.490639018630e+02 
8
Step 21000
1 1  2.806141130782e+02  -1.871348522359e+02   4.532352187462e+02 
2 1 -1.047964107382e+02  -2.222167763370e+01   1.433180387205e+02 
3 1 -3.474074512944e+02   7.445784162170e+01  -3.803646002262e+02 
4 1 -2.761088724012e+02  -1.372370712728e+02   2.037761786307e+02 
5 1  2.926023011449e+02   5.180366769424e+01  -4.960850995275e+01 
6 1 -2.775542972225e+02  -8.957202349591e+01   2.660222232547e+02 
7 1  1.883829334560e+02  -2.635675329208e+02   3.069778433377e+02 
8 1 -1.445169001361e+02  -9.984992033314e+02   2.868005588431e+02 
8
Step 22000
1 1 -1.801392818118e+02   4.806999856173e+01  -9.378276132129e+01 
2 1  1.305141194258e+02   1.313204832671e+02   4.442827763535e+02 
3 1  4.528024381493e+02  -3.315101842516e+02   1.459631295616e+02 
4 1  2.893894180707e+02  -2.621378479297e+02   2.915039671640e+02 
5 1 -1.010803282148e+02   2.760146131533e+02  -1.174141136361e+02 
6 1  7.471536794141e+01  -1.665139117194e+02   3.719751972132e+02 
7 1  7.194583618682e+01  -3.030746480139e+02   2.445790158997e+01 
8 1  1.384749664097e+02  -5.579629429831e+01   2.568618401458e+02 
8
Step 23000
1 1  6.711569111422e+01  -1.337108873259e+02  -3.226945134858e+01 
2 1 -3.266283129107e+01   2.134989353822e+02   1.865039365600e+02 
3 1  2.479960158841e+02  -1.528163923208e+02  -3.783341010411e+02 
4 1  7.273745764058e+01  -2.478064358223e+02  -8.541274770600e+00 
5 1  2.193853706932e+02  -1.149254339018e+02  -1.682698126868e+02 
6 1  1.533329879228e+02  -3.588700498425e+02   7.679609613090e+01 
7 1  1.710827042397e+02   9.821687404664e+01   3.978808477092e+02 
8 1  1.520264181305e+02  -6.212479907942e+02   5.172270650879e+02 
8
Step 24000
1 1 -5.282408325700e+01   2.502728655609e+02   2.635687176725e+02 
2 1  4.384565700961e+02   3.522211017647e+02   6.287364607715e+02 
3 1  1.387249044760e+02  -5.322165014839e+02  -9.850714891190e+01 
4 1  1.432351156166e+02  -4.464416875560e+01  -3.588924451462e+01 
5 1  7.343649474303e+02   6.359461764740e+01   2.042861330064e+02 
6 1  3.179109158485e+01   1.840600618516e+02   2.122504616303e+02 
7 1  1.836165824190e+02   8.447673125980e+01   9.500508142515e+01 
8 1  6.501550788072e+01  -5.199351866825e+02   6.426667994068e+01 
8
Step 25000
1 1  2.497413842905e+02  -4.900508569389e+02  -5.092890678678e+01 
2 1 -4.226286524196e+02   8.028074046805e+01   3.671351470127e+02 
3 1  3.589763238817e+02  -1.580496205509e+02  -2.627068058492e+02 
4 1 -3.314931137403e+02   1.049700153325e+02  -5.489257425169e+02 
5 1  3.457210751009e+00  -2.937949291898e+02  -1.766069031385e+02 
6 1 -1.111899387198e+02  -2.869908175597e+02   1.992807398868e+02 
7 1 -2.477040441523e+02  -7.604221649648e+02   3.113110772391e+02 
8 1  1.818338326626e+02  -5.344802169799e+02   2.775382432554e+02 
8
Step 26000
1 1 -2.074432106220e+02   8.102997055941e+01   7.642656547200e+01 
2 1  1.902841976892e+02  -2.274653026328e+02  -6.537596415321e+01 
3 1  5.140630206149e+02  -6.298601497715e+01   1.689821160223e+01 
4 1 -3.623088499249e+02  -2.801798572277e+02  -2.162751308677e+01 
5 1  3.181102354152e+02  -2.767893008409e+02   5.588238950779e+01 
6 1 -1.265889567160e+02  -1.427850789493e+02   1.409984527567e+02 
7 1 -9.714550666305e+01   4.889555035086e+00   2.291750730631e+01 
8 1  3.167903925412e+02  -3.848593228050e+02  -1.409831884605e+02 
8
Step 27000
1 1 -9.259162023238e+01   1.815028674201e+02  -4.042121627851e+02 
2 1  1.840833233837e+02  -1.085054098462e+02   3.454172009834e+02 
3 1  3.944405983412e+02  -3.751255959242e+02  -2.302587788540e+02 
4 1 -2.541344806722e+02  -1.228299767531e+02  -1.134444799585e+02 
5 1  5.771050059507e+02  -2.465915985026e+02  -2.763137155643e+01 
6 1 -1.204079763867e+02   8.386357291535e+01   3.919981087558e+02 
7 1  1.365212518614e+02  -1.509991535595e+02  -2.763109264724e+02 
8 1  2.367816038551e+02   1.824685412623e+01   1.128032472418e+02 
8
Step 28000
1 1  2.494097969993e+02   2.488602720005e+02  -1.912881317727e+01 
2 1  5.375561645228e+01   4.187345094353e+02  -6.212663625205e+00 
3 1  6.898009868329e+02  -6.392859646872e+02  -3.267194553304e+02 
4 1  3.601193627018e+02  -3.941937685588e+02  -3.447726674377e+02 
5 1  3.368445277558e+02  -9.713402624223e+01   4.435667352182e+01 
6 1  3.262589379832e+02  -1.594232989940e+02   3.490305515655e+02 
7 1  2.882185849391e+01   2.179441339819e+02  -5.323876633808e+01 
8 1  1.112486807364e+02   4.101425439592e+02   3.675042389273e+00 
8
Step 29000
1 1 -9.143284633635e+01  -2.846070627547e+02  -1.243475869998e+02 
2 1 -2.282397923817e+02   2.151825500214e+02   1.303370848354e+02 
3 1  2.261200592374e+02  -2.007438655984e+02  -9.374138538921e+01 
4 1  3.896612136449e+01  -2.193995057118e+02  -4.182238340798e+02 
5 1 -2.205891169537e+01   5.391535517357e+01  -3.008696586017e+02 
6 1 -3.209699592096e+02  -3.054522774448e+02   1.802789160029e+02 
7 1 -1.914158269277e+02  -9.019900935593e+01  -4.058510185959e+02 
8 1 -2.685507206932e+01  -3.900898020693e+02   8.510992410930e+01 
8
Step 30000
1 1  8.154151268289e+01  -2.281049181598e+02  -3.838970547121e+02 
2 1  9.326684163022e+01   2.311218993727e+02   2.854314997787e+02 
3 1  5.052520635173e+02  -6.545768856016e+01  -1.983096553557e+02 
4 1 -4.318033100582e+02   1.199112387556e+02  -6.118753314412e+02 
5 1  1.255839354097e+02  -4.938982557555e+02   1.958250541464e+02 
6 1  1.452096677684e+02  -1.773036180943e+02   2.968074688532e+02 
7 1  1.004315256243e+02   1.735186274669e+02  -2.637949619754e+02 
8 1 -3.659087624560e+02   2.403391859197e+02  -1.971713928613e+02 
8
Step 31000
1 1  1.997554154056e+02   1.244042874028e+02  -2.778048107559e+02 
2 1 -1.307111929475e+02  -1.909902787381e+02  -3.029552856165e+02 
3 1  1.199847154409e+01  -4.266911388735e+02  -2.413993438839e+02 
4 1 -4.404993856953e+02  -3.542956406153e+02  -5.930564500656e+02 
5 1 -1.675182615936e+02  -3.757709287288e+02   2.250877439925e+02 
6 1 -1.944213517641e+02  -1.364044609416e+02   1.177497147578e+02 
7 1 -2.513614087465e+02   2.191280941187e+02  -2.532887142406e+02 
8 1  1.737918056101e+02  -1.594698094145e+02  -5.425182317668e+02 
8
Step 32000
1 1  1.274521153629e+02   5.960009012418e+02  -4.119105527067e+02 
2 1  8.271699649187e+01  -1.598267000949e+02   5.220055074003e+01 
3 1  8.689486583512e+02  -6.003886392688e+01   6.873268371184e+01 
4 1 -9.862566966708e+01  -2.530505203921e+02  -3.862232422509e+02 
5 1  3.288472812650e+02  -3.422471893785e+02   1.483879825913e+02 
6 1  1.017090802841e+02   4.491965669510e+02   2.336410462943e+02 
7 1 -2.973059426621e+01   4.031645191466e+02  -1.728959254170e+02 
8 1  1.038885591192e+02   6.360160304193e+02  -5.037933061753e+02 
8
Step 33000
1 1 -1.640570141091e+02  -1.346876226814e+02  -3.988191858086e+02 
2 1  9.171848186624e+01   1.688605431636e+02   6.715707932494e+01 
3 1  3.640619530657e+02  -1.603777617428e+01  -2.424965740257e+02 
4 1 -3.750176777014e+02   2.393400202892e+02  -5.598188007912e+02 
5 1  5.263917502395e+01  -4.820810382668e+02  -1.531318964450e+01 
6 1 -2.888704429461e+02  -1.851887534908e+02   1.201405204741e+02 
7 1 -4.389873377571e+01   1.432878246925e+02  -1.035823467605e+02 
8 1  6.989584528354e+01   3.238172113641e+02  -1.321175101554e+02 
8
Step 34000
1 1  2.955928173261e+02  -4.603503376144e+02  -1.998808279202e+02 
2 1  2.251242873608e+02   3.812259085159e+02   6.794152861803e+00 
3 1 -1.368651341367e+02  -1.722258616004e+02  -1.352349474964e+02 
4 1 -4.536739634376e+02   1.105144789809e+02  -2.299934438029e+02 
5 1 -1.927370313439e+02  -4.494516113738e+02  -1.003866815275e+02 
6 1 -1.623860489758e+02   8.030960789540e+01  -1.789954512815e+01 
7 1 -2.259556726264e+02   2.477093193116e+02  -3.893938060035e+02 
8 1 -2.859458273911e+02   1.970176153880e+02  -4.298354618510e+02 
8
Step 35000
1 1  2.125055335956e+02  -1.681540068630e+02  -5.636693824800e+02 
2 1 -5.925406383638e+02   3.010112061860e+02   6.392620572653e+01 
3 1  9.280373030797e+01  -3.037886279653e+02   2.214643592754e+02 
4 1 -6.488559410150e+02  -5.036897546793e+01  -3.333415019670e+02 
5 1 -2.368798578117e+02   5.546375203048e+00   1.742671967500e+01 
6 1  3.294465797421e+01  -1.857507391424e+02   3.322287601692e+02 
7 1 -2.457985851005e+02   1.206930028583e+02  -4.757632530316e+02 
8 1 -4.161471825713e+02   1.885567385630e+02  -3.342615842040e+02 
8
Step 36000
1 1 -4.877445019051e+01   2.716768604807e+02  -2.576284601441e+02 
2 1  6.626264065357e+02  -2.621453520214e+02  -3.825588797370e+02 
3 1  4.530855438579e+02   2.274753299755e+02   1.900258892067e+01 
4 1 -2.579167458124e+02   3.152810246555e+02  -1.630422784521e+01 
5 1 -8.742596276265e+01  -5.329504539296e+01  -7.146919381502e+00 
6 1 -1.994802667101e+02   1.089427614510e+02   1.125227339470e+02 
7 1  3.061577854840e+02   6.132923305970e+02  -4.127072668518e+02 
8 1 -8.332549628924e+01   1.497567465993e+02  -1.119111130730e+02 
8
Step 37000
1 1 -2.261609590506e+02   2.508201127283e+02  -2.293949974162e+02 
2 1  8.027465970890e+01  -1.440650264994e+02  -1.402083422964e+02 
3 1  1.521980214494e+01   1.714079862091e+02   2.237364448610e+02 
4 1 -2.139132996763e+02   2.583677513704e+02  -4.236988037677e+02 
5 1 -1.184494797977e+02  -3.925432524376e+02   3.466249076255e+02 
6 1 -4.016245521868e+01   2.087273584608e+01   2.691751428156e+02 
7 1 -2.655845046006e+02   1.867727173041e+02  -2.967147766216e+02 
8 1 -3.778918796299e+00   3.879709769201e+02  -4.592358606666e+02 
8
Step 38000
1 1  3.554099994599e+02  -2.283238692620e+02   9.296729857279e+01 
2 1 -1.946294515135e+02  -7.039355842643e+01  -2.724079180136e+02 
3 1  2.927833679075e+02   2.773113293418e+02   3.193170982990e+02 
4 1 -2.453711229932e+02  -7.718082766412e+01  -2.401299672474e+01 
5 1 -7.470736443012e+01   4.948892765838e+02   2.416488354076e+02 
6 1 -8.832853609322e+01  -3.552880989117e+01   4.570900042080e+01 
7 1 -1.540851634999e+02   3.908667976555e+02  -6.514484317992e+02 
8 1 -2.328876521508e+02   7.592105353713e+02  -3.656687467426e+02 
8
Step 39000
1 1 -7.820093237424e+01  -7.706549864052e+01  -2.711454933621e+02 
2 1 -5.973295067545e+01  -1.881573395223e+02  -3.097754272985e+02 
3 1 -4.737193110977e+02  -3.519709372671e+01   2.282196579972e+02 
4 1 -3.973400896680e+02   1.063648716755e+02  -7.976432211383e+01 
5 1 -1.722606504810e+02  -3.985449561785e+02   1.154836951048e+02 
6 1 -6.593271638068e+02   2.676054611930e+01   3.730311849218e+01 
7 1 -3.412588138629e+02  -2.597612009145e+02  -4.020896561972e+02 
8 1 -1.732019296862e+02   2.351766502308e+02  -3.516357107904e+02 
8
Step 40000
1 1  1.403665190266e+02  -4.598060581173e+02  -3.472127813217e+02 
2 1  9.773512696346e+00   3.179455744603e+02   1.776066322525e+02 
3 1 -8.947775340509e+01   1.446082768025e+02   2.527404208519e+02 
4 1  3.490965919008e+01   6.358435748137e+02  -6.001517331697e+01 
5 1  6.696222074744e+01   1.778267019886e+02   4.082524144333e+02 
6 1 -6.805000469666e+01   2.344294967437e+02   1.029091708017e+02 
7 1 -2.339005801348e+02  -5.773220600420e+01  -5.479015689453e+02 
8 1 -1.878091610275e+02   3.925258046025e+02  -2.174695106022e+02 
8
Step 41000
1 1  2.321079097416e+02  -1.674292797089e+01   2.778842428194e+02 
2 1 -4.006778162810e+02   2.706486323124e+02  -5.945720971251e+02 
3 1  2.675486336293e+02   3.732917348111e+02   2.263302911878e+02 
4 1 -1.802401561097e+02   4.409111337061e+02   3.384810010358e+02 
5 1 -6.120760776448e+01   2.768930787039e+02   2.705628443892e+02 
6 1  9.901243632862e+01  -2.889792814319e+02   5.400864672855e+02 
7 1  3.971873881705e+02   2.355592358933e+02  -7.379210259693e+01 
8 1 -1.118602106094e+02   5.572661947247e+02  -8.864663565496e+01 
8
Step 42000
1 1  3.153475417945e+02   4.741133390152e+02   1.327099500540e+02 
2 1  1.815770007874e+02  -5.973299031259e+02  -2.018283517610e+02 
3 1 -2.103150850219e+02   7.834453507884e+01   2.484201433473e+02 
4 1 -2.719073732735e+02   3.480004331764e+02   1.281674801119e+01 
5 1  2.700160784432e+02  -2.161389834351e+02   4.336793245363e+02 
6 1 -1.277938253602e+02   5.387587654426e+02   3.231355763348e+02 
7 1 -5.402616666102e+01   3.781548405936e+02  -6.861812636134e+02 
8 1 -1.166393657329e+02   4.134408079218e+02  -7.052644476676e+01 
8
Step 43000
1 1 -4.048360729434e+02   6.471255322852e+01   2.387887879684e+02 
2 1 -2.738703973310e+02  -2.265252765944e+02  -1.071018295787e+02 
3 1 -5.655811692650e+01   1.154591513105e+02   2.783196489212e+02 
4 1 -1.058649090341e+02   1.950130602010e+02   2.524275579471e+02 
5 1 -1.718547607535e+02  -1.271623755089e+02   3.800293749899e+02 
6 1 -3.763163319799e+02  -1.052228768195e+02   6.996769073241e+01 
7 1 -1.562259842446e+02   8.075361972405e+01  -2.673974534094e+02 
8 1 -3.523327064342e+02  -1.737348614570e+01  -1.070228698735e+02 
8
Step 44000
1 1  3.763991519987e+02  -2.297925758577e+02   2.236528889207e+02 
2 1  6.158841402106e+01  -3.958353100965e+02  -3.522204852241e+02 
3 1 -3.582262336556e+02   7.017871834613e+02   3.413311046185e+02 
4 1 -2.671353631985e+02   5.625637993833e+02  -1.256579577119e+02 
5 1  2.856602959377e+02  -4.053397915180e+01   2.795067586989e+02 
6 1 -8.589814108382e+01  -2.921105533361e+02   3.185723362781e+02 
7 1 -5.227298881066e+01   2.229207296807e+02   5.821008314826e+00 
8 1  6.677604491236e+01   3.526392229062e+02   3.312396234843e+01 
8
Step 45000
1 1  2.516686753331e+02   2.495475967342e+02   3.196449148851e+02 
2 1 -2.739845736208e+01  -1.676343460079e+02   1.608425335361e+02 
3 1 -2.389926378088e+02   2.368541053551e+02   3.966522318322e+02 
4 1 -3.604202386299e+02   3.657588865616e+02   1.022417172960e+02 
5 1  3.904582937278e+02   1.796895928720e+01   4.124782719789e+02 
6 1 -4.282769595560e+01   2.951871039860e+02   1.251837394491e+02 
7 1  7.740707114015e+01  -2.648743576103e+02  -1.184742023881e+02 
8 1  1.879963090097e+02   9.432854106190e+01   3.974921028645e+02 
8
Step 46000
1 1  4.615514283191e+01   1.807786856810e+02   2.540178534980e+02 
2 1  1.596574333385e+02  -1.606363879462e+02  -1.338695957145e+02 
3 1 -1.922325031185e+02   1.284637969708e+02   4.803247958529e+02 
4 1  1.564438374023e+02   6.532248180624e+02   2.100485638451e+02 
5 1  1.770906021507e+02   4.137054202154e+01   4.830422199471e+02 
6 1  3.139407939027e+02   1.976046293643e+02  -5.399126781937e+01 
7 1  3.100597670737e+02   2.039552972531e+02   4.478604391254e+02 
8 1  2.829053009443e+02   5.262161073024e+02   2.066964438620e+02 
8
Step 47000
1 1  9.830288561967e+01   1.705927361840e+02   4.565498483780e+02 
2 1 -2.061582088150e+01  -2.937319052041e+02  -1.722957222393e+02 
3 1 -2.717526979455e+02   1.407243657062e+02   3.226714112447e+02 
4 1 -3.180431102465e+02   7.414587362169e+01   1.478205110654e+02 
5 1 -2.822276445298e+01  -1.282414321695e+02   1.131773366722e+02 
6 1  5.127513416473e+01   1.298132484905e+01   2.892407675840e+02 
7 1  2.050573126274e+02  -2.405826841878e+02  -4.203190467857e+00 
8 1  2.749316045745e+01   4.695745614059e+00   4.065620823784e+02 
8
Step 48000
1 1  2.550262316011e+02   4.909016178301e+01   7.714078005814e+02 
2 1 -2.221006060137e+02  -6.655414941506e+02  -2.778345285495e+02 
3 1 -1.864341260761e+02   9.972307309700e+01  -2.409474071698e+01 
4 1 -1.353753198063e+02   3.947603820931e+02  -5.733005399147e+01 
5 1 -5.971768533177e+01   3.417299152275e+01  -2.553104833358e+01 
6 1  2.134222980511e+02  -2.234949360067e+02   2.959901453137e+02 
7 1  1.261332787312e+02  -4.880298219657e+02   1.048154197764e+02 
8 1 -3.634401682313e+02   1.548618615383e+02   3.914970136858e+01 
8
Step 49000
1 1  7.982451113498e+01   1.803424704820e+02   5.610740646009e+02 
2 1  4.464179434196e+02  -1.302738022934e+02   2.237775779074e+01 
3 1 -3.904822217052e+02   3.264999414340e+02   4.417093507541e+02 
4 1  5.625280147891e+01   3.868804252357e+02   1.693410620650e+02 
5 1  7.066056489291e+01  -1.040616718177e+02   1.084023467666e+02 
6 1  3.911650153964e+02   6.518332753216e+01   3.258952998054e+01 
7 1  3.380048062017e+02   2.068074178213e+01   1.527985423002e+02 
8 1  1.856376570192e+02  -2.590659640956e+02   6.778972206763e+02 
8
Step 50000
1 1  2.569720551922e+02   4.491476770784e+02   2.593922634954e+01 
2 1 -7.448117324001e+01  -6.226229139143e+02   1.403850513927e+02 
3 1 -4.176319098452e+01  -3.188747995199e+01   1.412884205091e+02 
4 1  9.054342831437e+01  -1.827571313888e+01   2.447739783985e+02 
5 1  5.016130374749e+02   4.724091744106e+02  -1.532885996026e+02 
6 1 -1.568151349451e+02   2.576050438734e+01   3.370466629656e+02 
7 1  2.991777027595e+02  -4.666344403288e+02  -7.128253183121e+01 
8 1  7.029553658865e+02   6.444647549760e+01   7.115006893837e+02 
8
Step 51000
1 1 -1.361855536371e+02   1.802182647938e+02   6.985309463223e+02 
2 1 -2.709840009499e+02  -2.586438453233e+01  -3.259613293560e+02 
3 1  1.528348372353e+02  -3.375784814246e+01   5.747962791358e+02 
4 1 -4.665790049892e+01   2.741071933104e+02  -7.515118663197e+01 
5 1  3.641860749333e+02   3.458622332425e+02   1.716288440682e+02 
6 1  3.139790760950e+02  -2.202137427690e+02   8.198151650904e+01 
7 1  3.157915991273e+02  -4.812825242458e+02   7.331248441183e+01 
8 1  1.628202856969e+02  -2.295773355239e+02   4.878527549210e+02 
8
Step 52000
1 1  5.257644375882e+01   2.363567831739e+02   4.447549124792e+02 
2 1  2.320792308207e+02  -4.703744770409e+02  -2.296889114214e+02 
3 1 -1.329890912862e+02  -1.740621227696e+02  -2.176726629160e+02 
4 1 -7.680473228445e+01   6.436860957329e+01  -6.860713753635e+01 
5 1  2.780654072197e+02  -1.041333185103e+02  -4.810809106006e+01 
6 1  7.240784517904e+01   8.354763821837e+01   1.220387008081e+01 
7 1  3.528976355965e+01  -4.361612531064e+02   1.978676384757e+02 
8 1  1.427338756825e+02  -1.838751396904e+02   3.762170553913e+02 
8
Step 53000
1 1  6.224964354398e+01   4.281194883618e+02   4.309775514605e+02 
2 1  2.872370402553e+01  -3.257245384020e+02   1.345791891881e+01 
3 1 -6.257160338641e+01  -1.862834592791e+02  -2.510876862012e+02 
4 1  8.834652874516e+01  -1.174602021531e+02   1.590704458853e+02 
5 1  4.788048233305e+01   2.400497357575e+02   7.734829939834e+00 
6 1  3.060984159210e+02  -1.220548630216e+02  -3.303981267563e+02 
7 1  2.024496623504e+02  -6.719004689559e+02  -9.512373909655e+01 
8 1  1.200944709473e+02  -4.708621632788e+02   4.276082701599e+02 
8
Step 54000
1 1 -1.850153763568e+02   2.761133707567e+02   1.260863753509e+01 
2 1  7.977510461736e+00  -1.645851158802e+02  -1.292951510829e+02 
3 1  2.299880200122e+02  -2.950283119081e+02   3.551887999457e+02 
4 1  5.662942283790e+02   2.420742941692e+02   3.047673135761e+02 
5 1  2.659601542244e+02  -2.609241256876e+02  -1.833704868689e+02 