8
Step 0
1 1 2.94054250665727636e-02 -1.71415551658958519e-02 8.51897147794409247e-03
2 1 -1.00609254494357179e-02 1.12674068248266972e-02 -2.91466222763118107e-02
3 1 -2.75383414816519705e-04 -8.35480509309432379e-03 -2.01087808374322864e-02
4 1 4.69329016256109233e-03 -1.89843644998537973e-02 -6.37059453081953832e-04
5 1 -4.38633407759262718e-03 -1.22240661886217732e-03 -2.05123597758632252e-02
6 1 -1.82332757659098010e-02 1.39608923220710113e-02 1.92359045718584992e-03
7 1 -1.46256616918336944e-02 -3.03380823803835881e-03 -7.85333263632288781e-03
8 1 1.38617328839182874e-03 1.34475782330905529e-03 -1.17680711841853056e-02
8
Step 10
1 1 2.92974382098014699e-02 -1.96869782479133885e-02 6.71632969324405683e-03
2 1 -1.38012557688496577e-02 1.21232903596236678e-02 -2.61691631967132070e-02
3 1 -7.18535938007569259e-04 -6.59729096741098857e-03 -2.30163365098137486e-02
4 1 3.13686731919933948e-03 -2.00644199954210199e-02 3.32746841382794119e-03
5 1 -1.49073212567995064e-03 1.14614110722075445e-03 -2.49511229900988181e-02
6 1 -2.12410555204691869e-02 1.63607731653708822e-02 8.21281071388964821e-04
7 1 -1.15793264430291854e-02 -4.94683789949051326e-03 -6.64661031282133812e-03
8 1 3.05878485075338933e-03 -9.01030900973527052e-04 -9.67059477170138446e-03
8
Step 20
1 1 2.89567479217230569e-02 -2.21428563490864531e-02 4.75455088864188639e-03
2 1 -1.76364080220555684e-02 1.28773987821922346e-02 -2.27675340955287298e-02
3 1 -1.24667790386579934e-03 -4.71429943124922288e-03 -2.57917746861403771e-02
4 1 1.48088473918792161e-03 -2.10020431296925117e-02 7.58445919376185204e-03
5 1 1.58522933321118787e-03 3.51250623078688557e-03 -2.92927093027036296e-02
6 1 -2.41503385771744614e-02 1.88734210756483049e-02 -3.53166529347369296e-04
7 1 -8.25151108392460642e-03 -7.03450822873896535e-03 -5.32885588739209163e-03
8 1 4.81533712834977205e-03 -3.32754014044216043e-03 -7.30414802913630264e-03
8
Step 30
1 1 2.83949929000088912e-02 -2.43384569427461672e-02 2.75181885841062346e-03
2 1 -2.13118123546112669e-02 1.34670197780906338e-02 -1.91359023016824913e-02
3 1 -1.83490155754275231e-03 -2.81895417087937644e-03 -2.82424912727043398e-02
4 1 -1.80401421727599060e-04 -2.17178914671748019e-02 1.18517946818527311e-02
5 1 4.65391312145421905e-03 5.71447236609780567e-03 -3.32249628891047796e-02
6 1 -2.67581842588298612e-02 2.13343537860414614e-02 -1.51096055239422497e-03
7 1 -4.83087652287808415e-03 -9.17976359566418862e-03 -3.96851105926920161e-03
8 1 6.54268235626203655e-03 -5.78558594680838797e-03 -4.80824629636655756e-03
8
Step 40
1 1 2.76264682810743976e-02 -2.62447263225008068e-02 7.34570021525079715e-04
2 1 -2.47720136104284776e-02 1.38800044027631124e-02 -1.53236322267263220e-02
3 1 -2.47870502276562607e-03 -9.33212132904562243e-04 -3.03398769972718571e-02
4 1 -1.83340741199538399e-03 -2.21968778015591249e-02 1.60508331549877106e-02
5 1 7.67750023798847037e-03 7.71947110995091328e-03 -3.66814320094250648e-02
6 1 -2.90292249925523729e-02 2.37041441138692438e-02 -2.62043490894768539e-03
7 1 -1.35139498778141950e-03 -1.13615594599027672e-02 -2.57259102328443855e-03
8 1 8.21493075219139474e-03 -8.24005737547916367e-03 -2.21953222935753619e-03
8
Step 50
1 1 2.66674511895518065e-02 -2.78353432213189166e-02 -1.27001597656323326e-03
2 1 -2.79628321795238298e-02 1.41063654994823106e-02 -1.13837476230397982e-02
3 1 -3.17235062638312115e-03 9.21089392983110615e-04 -3.20596619864879293e-02
4 1 -3.46401048112487866e-03 -2.24267472476889634e-02 2.01024416920321108e-02
5 1 1.06172420458841704e-02 9.49762341694153009e-03 -3.96013036361176837e-02
6 1 -3.09317675633664566e-02 2.59429470494577478e-02 -3.65055922596509716e-03
7 1 2.15115779823453609e-03 -1.35565392553629628e-02 -1.14892865232508329e-03
8 1 9.80602564406410013e-03 -1.06543389582398670e-02 4.22971648506572729e-04
8
Step 60
1 1 2.55361795948626895e-02 -2.90873216944435714e-02 -3.23430680699496320e-03
2 1 -3.08323346267370610e-02 1.41386560180814091e-02 -7.37251974869723107e-03
3 1 -3.90886790680710326e-03 2.72246875039007952e-03 -3.33824738480657940e-02
4 1 -5.05761786589691096e-03 -2.23985979497327327e-02 2.39282962017332602e-02
5 1 1.34338721879838814e-02 1.10223092284877158e-02 -4.19307738434790550e-02
6 1 -3.24385471597519945e-02 2.80111798386965156e-02 -4.57158054130557632e-03
7 1 5.63935005034747229e-03 -1.57392197862320608e-02 2.93745641575108944e-04
8 1 1.12901074315641045e-02 -1.29908167011054052e-02 3.07826723849854078e-03
8
Step 70
1 1 2.42528039047852639e-02 -2.99817160875546426e-02 -5.13061222470760810e-03
2 1 -3.33319970604273041e-02 1.39723612884176552e-02 -3.34884087579331770e-03
3 1 -4.68009999675833392e-03 4.45011350113751810e-03 -3.42944732409487529e-02
4 1 -6.59931699317966615e-03 -2.21074221168866859e-02 2.74524271898392812e-02
5 1 1.60881956179357681e-02 1.22708138302284123e-02 -4.36245744545240288e-02
6 1 -3.35275843534951212e-02 2.98703574381884232e-02 -5.35572439187592501e-03
7 1 9.07441634768961156e-03 -1.78823258734807089e-02 1.74578462616044620e-03
8 1 1.26419796220170397e-02 -1.52115454286696726e-02 5.70394073664800758e-03
8
Step 80
1 1 2.28392762403207342e-02 -3.05043809585099600e-02 -6.93168913611353580e-03
2 1 -3.54180241775458801e-02 1.36062723166843081e-02 6.26655509413793317e-04
3 1 -5.47680397136223341e-03 6.08427291296719398e-03 -3.47880117995571503e-02
4 1 -8.07411243361318316e-03 -2.15526214572953172e-02 3.06029918335364061e-02
5 1 1.85418556032697669e-02 1.32250181414424409e-02 -4.46475707733676036e-02
6 1 -3.41830886002484277e-02 3.14840655693921570e-02 -5.97793831336288460e-03
7 1 1.24167792073659952e-02 -1.99572865104842637e-02 3.19667952114557072e-03
8 1 1.38376697192460190e-02 -1.72790774582498655e-02 8.25689660635940681e-03
8
Step 90
1 1 2.13191473251700923e-02 -3.06467208651776783e-02 -8.61134811652183342e-03
2 1 -3.70527554473297077e-02 1.30428008132078103e-02 4.49273904564493742e-03
3 1 -6.28881208245318096e-03 7.60671814022683725e-03 -3.48622400366410123e-02
4 1 -9.46724574899954381e-03 -2.07384427437447873e-02 3.33142116156215293e-02
5 1 2.07582564901446429e-02 1.38720827485285594e-02 -4.49763096126328948e-02
6 1 -3.43963309301496198e-02 3.28190309115798801e-02 -6.41664620834026932e-03
7 1 1.56267728312370832e-02 -2.19348895594318576e-02 4.63519799222479861e-03
8 1 1.48550628477773523e-02 -1.91574314329944033e-02 1.06942638340180810e-02
8
Step 100
1 1 1.97172502785358181e-02 -3.04063529703916431e-02 -1.01451366955469940e-02
2 1 -3.82060625509490423e-02 1.22881944876906124e-02 8.18896961143329369e-03
3 1 -7.10525547861938327e-03 9.00124645962781939e-03 -3.45235833235288600e-02
4 1 -1.07645842805725658e-02 -1.96742766820281051e-02 3.55283748513577566e-02
5 1 2.27035964793474189e-02 1.42050627818720455e-02 -4.46003723308164776e-02
6 1 -3.41663949235346959e-02 3.38462266372652962e-02 -6.65446928035290115e-03
7 1 1.86655478854946474e-02 -2.37860743684099180e-02 6.04960560055239731e-03
8 1 1.56745717269690665e-02 -2.08131581511020736e-02 1.29744492269780257e-02
8
Step 110
1 1 1.80592633306928506e-02 -2.97876015380265889e-02 -1.15110599042146395e-02
2 1 -3.88566229887719258e-02 1.13526139943661876e-02 1.16572705299178066e-02
3 1 -7.91484543950930243e-03 1.02541951225087469e-02 -3.37860040684619459e-02
4 1 -1.19530551352457163e-02 -1.83747675350389647e-02 3.71977705819900722e-02
5 1 2.43479434389493529e-02 1.42233849318882700e-02 -4.35233788065413005e-02
6 1 -3.35007113323597255e-02 3.45419343821370128e-02 -6.67886050517531044e-03
7 1 2.14961113800797472e-02 -2.54828233406817206e-02 7.42796290574986723e-03
8 1 1.62797948473705940e-02 -2.22164401403422106e-02 1.50582887161241664e-02
8
Step 120
1 1 1.63711581390143940e-02 -2.88017488950311033e-02 -1.26902866859450684e-02
2 1 -3.89929470515139112e-02 1.02500410635564757e-02 1.48435985117362744e-02
3 1 -8.70619991132491784e-03 1.13549226283269737e-02 -3.26709785555702042e-02
4 1 -1.30210921830105145e-02 -1.68596923970463393e-02 3.82863997670449610e-02
5 1 2.56662706379600022e-02 1.39331205279766661e-02 -4.17634981973813157e-02
6 1 -3.24152892946683244e-02 3.48886734713945781e-02 -6.48259682070981367e-03
7 1 2.40844329420689882e-02 -2.69990964360320440e-02 8.75848146051801286e-03
8 1 1.66581071935067923e-02 -2.33421463087505159e-02 1.69102264314596740e-02
8
Step 130
1 1 1.46785553133317922e-02 -2.74669827495550994e-02 -1.36677835751279515e-02
2 1 -3.86140415449356955e-02 8.99800054514235392e-03 1.76995948678530836e-02
3 1 -9.46819594857072240e-03 1.22962116480180798e-02 -3.12071372974060471e-02
4 1 -1.39590577896060459e-02 -1.51535871633557626e-02 3.87713058088859433e-02
5 1 2.66393607600677630e-02 1.33470003066370416e-02 -3.93533521130780134e-02
6 1 -3.09345763755821609e-02 3.48759069810654979e-02 -6.06407769754828147e-03
7 1 2.64005307279977057e-02 -2.83117389838305061e-02 1.00299133402180531e-02
8 1 1.68011260838637350e-02 -2.41707547967082888e-02 1.84994357084265933e-02
8
Step 140
1 1 1.30060223199181032e-02 -2.58080044930760477e-02 -1.44328160492858144e-02
2 1 -3.77296151384701184e-02 7.61709648356605207e-03 2.01840871001359723e-02
3 1 -1.01903224390832887e-02 1.30745492495691167e-02 -2.94295470069016289e-02
4 1 -1.47595982681026951e-02 -1.32851199117212122e-02 3.86433822689916037e-02
5 1 2.72544878599296735e-02 1.24841369692027335e-02 -3.63392446882023282e-02
6 1 -2.90909099578633007e-02 3.45004436940069062e-02 -5.42739108217912651e-03
7 1 2.84194396264054530e-02 -2.94012853486959637e-02 1.12319415615123649e-02
8 1 1.67049998052267619e-02 -2.46890583490017822e-02 1.98007889707519161e-02
8
Step 150
1 1 1.13763595849473188e-02 -2.38552959547587047e-02 -1.49792643490275403e-02
2 1 -3.63597670998903125e-02 6.13038248440948234e-03 2.22643090501083857e-02
3 1 -1.08630033012229194e-02 1.36902470074432830e-02 -2.73786483145238083e-02
4 1 -1.54178936473151652e-02 -1.12862396005763352e-02 3.79075526502190424e-02
5 1 2.75057998254861977e-02 1.13694495273992443e-02 -3.27797189712174392e-02
6 1 -2.69235619305813433e-02 3.37664762773886781e-02 -4.58212750553376336e-03
7 1 3.01219640339856418e-02 -3.02525813455807938e-02 1.23555339288012149e-02
8 1 1.63704794027009423e-02 -2.48905787890083795e-02 2.07955871272695082e-02
8
Step 160
1 1 9.80992691466237021e-03 -2.16440803940006928e-02 -1.53057149807093174e-02
2 1 -3.45341517369722392e-02 4.56260726892449790e-03 2.39167243985672108e-02
3 1 -1.14778604305967712e-02 1.41473761183220168e-02 -2.50989028642813299e-02
4 1 -1.59317692408375323e-02 -9.19115567456582280e-03 3.65822743804771894e-02
5 1 2.73943493069004514e-02 1.00328161288405441e-02 -2.87435141828981840e-02
6 1 -2.44774237617491619e-02 3.26852289890617181e-02 -3.54294879617632948e-03
7 1 3.14951299009664509e-02 -3.08551591053794691e-02 1.33932219049062006e-02
8 1 1.58027541929317041e-02 -2.47756412562263675e-02 2.14719755427325854e-02
8
Step 170
1 1 8.32406294908033875e-03 -1.92130528504920947e-02 -1.54153111987264061e-02
2 1 -3.22906704825864713e-02 2.93939429467985095e-03 2.51273737553163283e-02
3 1 -1.20278892016528853e-02 1.44535102253147852e-02 -2.26372415427618413e-02
4 1 -1.63016491288745860e-02 -7.03522816655266416e-03 3.46983920135877574e-02
5 1 2.69277581188155438e-02 8.50801536160623005e-03 -2.43070741971796039e-02
6 1 -2.18014243901764500e-02 3.12742307990356017e-02 -2.32894615688369411e-03
7 1 3.25322774521788968e-02 -3.12033206324798355e-02 1.43392704323441963e-02
8 1 1.50110579448483970e-02 -2.43510937971773180e-02 2.18250031601662370e-02
8
Step 180
1 1 6.93264425373342052e-03 -1.66029888287100580e-02 -1.53153734735943514e-02
2 1 -2.96738039390881982e-02 1.28642583384326950e-03 2.58917178816446755e-02
3 1 -1.25075279268706055e-02 1.46192896070250714e-02 -2.00414358049247412e-02
4 1 -1.65303494728812304e-02 -4.85386315255497813e-03 3.22974436646579072e-02
5 1 2.61195451394065498e-02 6.83154425811191655e-03 -1.95518208602559092e-02
6 1 -1.89468112655423737e-02 2.95562768831063513e-02 -9.62848601784303685e-04
7 1 3.32327761097922086e-02 -3.12959196926278077e-02 1.51897150853367476e-02
8 1 1.40080820137957387e-02 -2.36297000601066037e-02 2.18563217601410488e-02
8
Step 190
1 1 5.64581764291674504e-03 -1.38553609645484018e-02 -1.50168301795709190e-02
2 1 -2.67327457613742367e-02 -3.71296692544486890e-04 2.62140121188083990e-02
3 1 -1.29126158637511337e-02 1.46578416948193128e-02 -1.73585291275736228e-02
4 1 -1.66227304242219896e-02 -2.68151014210696835e-03 2.94295955793176592e-02
5 1 2.49881936299813645e-02 5.04141796377895798e-03 -1.45614415859567966e-02
6 1 -1.59654465311530012e-02 2.75581847331223505e-02 5.29838795267799888e-04
7 1 3.36013920281913875e-02 -3.11358717941215696e-02 1.59422590805093876e-02
8 1 1.28092588683194151e-02 -2.26292755153041474e-02 2.15735680160880176e-02
8
Step 200
1 1 4.46992065878251080e-03 -1.10110940154580141e-02 -1.45335236709952832e-02
2 1 -2.35195265951089333e-02 -2.01005510602049941e-03 2.61063085391522176e-02
3 1 -1.32402501693363144e-02 1.45841104375487550e-02 -1.46334597800032787e-02
4 1 -1.65852454775089093e-02 -5.50843418657546427e-04 2.61514261409724579e-02
5 1 2.35560710141900394e-02 3.17605602373937030e-03 -9.41943678316951860e-03
6 1 -1.29082684278940974e-02 2.53094806044623331e-02 2.12168188568481395e-03
7 1 3.36473876290026147e-02 -3.07294614120222527e-02 1.65960422715342483e-02
8 1 1.14319981868704970e-02 -2.13716718214919527e-02 2.09895131847846403e-02
8
Step 210
1 1 3.40758374548568712e-03 -8.10956628257012216e-03 -1.38814715072292458e-02
2 1 -2.00873104354719716e-02 -3.60784068916233155e-03 2.55872289893756752e-02
3 1 -1.34885673652877132e-02 1.44141566830451005e-02 -1.19079778072915931e-02
4 1 -1.64254418278779943e-02 1.50782039140314253e-03 2.25237892004949355e-02
5 1 2.18483328561990681e-02 1.27334157645168510e-03 -4.20712493809399270e-03
6 1 -9.82403985037826055e-03 2.28411590213790372e-02 3.78407477731732000e-03
7 1 3.33834705832297615e-02 -3.00855450417161184e-02 1.71513133892615133e-02
8 1 9.89496262799501557e-03 -1.98817308876915871e-02 2.01210940776160550e-02
8
Step 220
1 1 2.45798774220208583e-03 -5.18792354353206798e-03 -1.30781627209170647e-02
2 1 -1.64890065522679818e-02 -5.14459451959345133e-03 2.46806723545324701e-02
3 1 -1.36564857290514836e-02 1.41644908082380044e-02 -9.21991291336955211e-03
4 1 -1.61514706958038566e-02 3.46685546623244113e-03 1.86099527596780730e-02
5 1 1.98919371258545682e-02 -6.30094481996649070e-04 9.97780659799686002e-04
6 1 -6.75845600839575927e-03 2.01846389751425409e-02 5.48785677977917108e-03
7 1 3.28247270178937539e-02 -2.92147602636418993e-02 1.76090509389736534e-02
8 1 8.21745918774105522e-03 -1.81863245703345021e-02 1.89884467547902433e-02
8
Step 230
1 1 1.61723608108318507e-03 -2.28071893027443967e-03 -1.21419544049150528e-02
2 1 -1.27762759806012653e-02 -6.60228174584846176e-03 2.34146079806330266e-02
3 1 -1.37434488310984367e-02 1.38514873744861738e-02 -6.60279592874128945e-03
4 1 -1.57716610971320309e-02 5.30143735359019791e-03 1.44741400723168989e-02
5 1 1.77148654793220124e-02 -2.49935427404090983e-03 6.12201060491719337e-03
6 1 -3.75362246287277773e-03 1.73709989991849036e-02 7.20377078079145923e-03
7 1 3.19876656407297941e-02 -2.81288414128526947e-02 1.79705838150539463e-02
8 1 6.41899694582801199e-03 -1.63135686340481409e-02 1.76140489886945535e-02
8
Step 240
1 1 8.78795261567003440e-04 5.80158635776371651e-04 -1.10916084693642430e-02
2 1 -8.99893831377852199e-03 -7.96484259549506794e-03 2.18200682103795347e-02
3 1 -1.37492064737435686e-02 1.34909126744762794e-02 -4.08578731316978742e-03
4 1 -1.52941957140868227e-02 6.98948867534627746e-03 1.01805136961366956e-02
5 1 1.53456027647578576e-02 -4.30154817754569048e-03 1.10970746619056173e-02
6 1 -8.47857823267504879e-04 1.44305198065057937e-02 8.90277766258215988e-03
7 1 3.08894685869556922e-02 -2.68401144915657655e-02 1.82372587332441834e-02
8 1 4.51902923386477556e-03 -1.42922577367983333e-02 1.60220434539398056e-02
8
Step 250
1 1 2.33960089027332343e-04 3.36534252726861625e-03 -9.94597899289703484e-03
2 1 -5.20471974262016503e-03 -9.21807460889049850e-03 1.99303979516033541e-02
3 1 -1.36736590968845780e-02 1.30975746715969125e-02 -1.69383226969148934e-03
4 1 -1.47269075097388596e-02 8.51153365765414290e-03 5.79256049892954913e-03
5 1 1.28128760510896594e-02 -6.00592239933242771e-03 1.58592411667558553e-02
6 1 1.92426526674124680e-03 1.13925108636262814e-02 1.05562666692771024e-02
7 1 2.95475000626091514e-02 -2.53612055811641771e-02 1.84101897062772177e-02
8 1 2.53686594465393073e-03 -1.21515226891244672e-02 1.42377703807261904e-02
8
Step 260
1 1 -3.27690261229023549e-04 6.04772621733098634e-03 -8.72383427351169916e-03
2 1 -1.43924019499725884e-03 -1.03494999959860591e-02 1.77807626990988780e-02
3 1 -1.35167783859863489e-02 1.26850861080179747e-02 5.52051292322111847e-04
4 1 -1.40771956270828273e-02 9.85053460933793534e-03 1.37277503147869716e-03
5 1 1.01456118039385153e-02 -7.58390908775673916e-03 2.03493357485613133e-02
6 1 4.53174487702465850e-03 8.28535754129203043e-03 1.21362146967652160e-02
7 1 2.79790770237978020e-02 -2.37049581100871286e-02 1.84901086799973864e-02
8 1 4.91716882881777242e-04 -9.92067274742110261e-03 1.22874970030917470e-02
8
Step 270
1 1 -8.17866526020988261e-04 8.60217239365247861e-03 -7.44377953437375724e-03
2 1 2.25387874001845446e-03 -1.13482615153194261e-02 1.54078708943200440e-02
3 1 -1.32786037184943386e-02 1.22657189880603021e-02 2.63443964572159265e-03
4 1 -1.33520431559464338e-02 1.09917695014793235e-02 -3.01749092934029510e-03
5 1 7.37304211176858810e-03 -9.00916573106572832e-03 2.45125248172353219e-02
6 1 6.94693946409802397e-03 5.13670441015982859e-03 1.36153475885764114e-02
7 1 2.62014674141106407e-02 -2.18845232218235798e-02 1.84773202428737821e-02
8 1 -1.59718642463561726e-03 -7.62916121310133408e-03 1.01983000968415317e-02
8
Step 280
1 1 -1.24918269508202530e-03 1.10052683765083665e-02 -6.12423812856633092e-03
2 1 5.83289537116363221e-03 -1.22050742241965188e-02 1.28498388111709556e-02
3 1 -1.29593037474358252e-02 1.18503233901014384e-02 4.53919299373929577e-03
4 1 -1.25581097463541777e-02 1.19227881912455994e-02 -7.31814422486551375e-03
5 1 4.52488034249492500e-03 -1.02576554615439065e-02 2.82982123053395797e-02
6 1 9.14540040974544215e-03 1.97368785604614891e-03 1.49673463496046849e-02
7 1 2.42320567130055384e-02 -1.99135686037077812e-02 1.83717502060172858e-02
8 1 -3.71044504418097023e-03 -5.30660404601127674e-03 7.99804124769369802e-03
8
Step 290
1 1 -1.63480747868381855e-03 1.32351782684165895e-02 -4.78345000231478277e-03
2 1 9.25790464219130443e-03 -1.29122433428828492e-02 1.01461171083081277e-02
3 1 -1.25592860078386596e-02 1.14482846972373750e-02 6.25521023421266639e-03
4 1 -1.17018688648952499e-02 1.26334615884700456e-02 -1.14705398589436403e-02
5 1 1.63149088978710227e-03 -1.13077988222573846e-02 3.16601278510970224e-02
6 1 1.11057960108280895e-02 -1.17685693958999890e-03 1.61671250687906269e-02
7 1 2.20886136166084830e-02 -1.78065447896396077e-02 1.81730693497632913e-02
8 1 -5.82837076805340325e-03 -2.98278623295963668e-03 5.71537174301894532e-03
8
Step 300
1 1 -1.98814724865820167e-03 1.52716162564936701e-02 -3.43945342138578507e-03
2 1 1.24909235928818644e-02 -1.34637436606955801e-02 7.33740424827620131e-03
3 1 -1.20793348518086503e-02 1.10674987470901105e-02 7.77426544322386368e-03
4 1 -1.07897613234653779e-02 1.31161176984971439e-02 -1.54178169276197093e-02
5 1 -1.27600811601750108e-03 -1.21407058273443041e-02 3.45566334313974211e-02
6 1 1.28099456044565071e-02 -4.28826965266763168e-03 1.71911895546359682e-02
7 1 1.97895878710875883e-02 -1.55789515676195821e-02 1.78808697126429002e-02
8 1 -7.93092366620024372e-03 -6.87604711759091849e-04 3.37971175130373936e-03
8
Step 310
1 1 -2.32255189146873082e-03 1.70959425838925448e-02 -2.11002647238703843e-03
2 1 1.54961267745881096e-02 -1.38553451352157880e-02 4.46548776952717611e-03
3 1 -1.15207584191860200e-02 1.07143517414430584e-02 9.09092197545966103e-03
4 1 -9.82834159190735038e-03 1.33657433954430388e-02 -1.91054148309227345e-02
5 1 -4.16575124468254211e-03 -1.27404784020679878e-02 3.69512317623550968e-02
6 1 1.42429571678267790e-02 -7.33405172206394451e-03 1.80180694034332983e-02
7 1 1.73543833535506238e-02 -1.32475570167158614e-02 1.74948704529240516e-02
8 1 -9.99773078796934236e-03 1.54908506281615675e-03 1.02116239378882505e-03
8
Step 320
1 1 -2.65103605800789694e-03 1.86913661400900204e-02 -8.12576077209527475e-04
2 1 1.82402250632235120e-02 -1.40847629702098645e-02 1.57297473782930719e-03
3 1 -1.08855276565834186e-02 1.03936991134502572e-02 1.02025057262399924e-02
4 1 -8.82439954643322345e-03 1.33802215722614460e-02 -2.24817681299339135e-02
5 1 -7.00526368233725296e-03 -1.30945593540204002e-02 3.88132275102370666e-02
6 1 1.53934433418441343e-02 -1.02879782617993337e-02 1.86288032286229185e-02
7 1 1.48035633656086480e-02 -1.08305344643597080e-02 1.70151322335850320e-02
8 1 -1.20081945028686354e-02 3.69773308818404072e-03 -1.32967442978907400e-03
8
Step 330
1 1 -2.98601116081169708e-03 2.00432258435229750e-02 4.36027469950869796e-04
2 1 2.06929601766342695e-02 -1.41518080298732463e-02 -1.29710629657455822e-03
3 1 -1.01763936795119109e-02 1.01088436944362248e-02 1.11091111965380372e-02
4 1 -7.78504645204592099e-03 1.31605694379630361e-02 -2.54991495917200883e-02
5 1 -9.76173490435482821e-03 -1.31940953459071062e-02 4.01184721235499434e-02
6 1 1.62537797340864716e-02 -1.31243294473067842e-02 1.90074477576965967e-02
7 1 1.21589597774932733e-02 -8.34749587269347990e-03 1.64422621367341509e-02
8 1 -1.39416876472001107e-02 5.72946667758979667e-03 -3.64197772774339746e-03
8
Step 340
1 1 -3.33902707779466313e-03 2.11393164556837945e-02 1.61966399341734071e-03
2 1 2.28276730841083728e-02 -1.40585141437394312e-02 -4.10183029197240968e-03
3 1 -9.39697340019001598e-03 9.86151786615926257e-03 1.18136115583922941e-02
4 1 -6.71775945574321857e-03 1.27111441908052108e-02 -2.81146101199247350e-02
5 1 -1.24024172468882952e-02 -1.30342775730256950e-02 4.08501137453578245e-02
6 1 1.68203647520739352e-02 -1.58182227881027322e-02 1.91415764646440494e-02
7 1 9.44367139429769069e-03 -5.81941246415980298e-03 1.57775945564571467e-02
8 1 -1.57778237038748541e-02 7.61655385539226383e-03 -5.88508594624186868e-03
8
Step 350
1 1 -3.72052601295714321e-03 2.19702222810288124e-02 2.72321222361663652e-03
2 1 2.46218968659250373e-02 -1.38092218520544548e-02 -6.79900998924371294e-03
3 1 -8.55179697177217354e-03 9.65187680688889618e-03 1.23216456220360815e-02
4 1 -5.63038343905905830e-03 1.20397860631475291e-02 -3.02909514271149372e-02
5 1 -1.48951266923824516e-02 -1.26146243467391873e-02 4.09992734352638069e-02
6 1 1.70938408808102744e-02 -1.83460187445098517e-02 1.90227320786555514e-02
7 1 6.68194893832841155e-03 -3.26842418768804417e-03 1.50233369840932756e-02
8 1 -1.74967836968700011e-02 9.33293171638367378e-03 -8.02895639668253433e-03
8
Step 360
1 1 -4.13961373876300769e-03 2.25296235159778077e-02 3.73281706146487077e-03
2 1 2.60579226287788873e-02 -1.34106027300000125e-02 -9.34790939544862670e-03
3 1 -7.64631407164352486e-03 9.47851060224011444e-03 1.26415591999111034e-02
4 1 -4.53109274669077824e-03 1.11578749228206028e-02 -3.19976619800145939e-02
5 1 -1.72088147047338158e-02 -1.19391738445684594e-02 4.05655761039268592e-02
6 1 1.70792420291435189e-02 -2.06857668807002570e-02 1.86467993374463646e-02
7 1 3.89897413298540647e-03 -7.17548722490438605e-04 1.41826729859941599e-02
8 1 -1.90796771938080423e-02 1.08547665567564917e-02 -1.00446812842734049e-02
8
Step 370
1 1 -4.60385514398876233e-03 2.28145441164236754e-02 4.63615651456004540e-03
2 1 2.71232899967466627e-02 -1.28716140277735421e-02 -1.17099980259446641e-02
3 1 -6.68685928842396686e-03 9.33848220387520009e-03 1.27842847769868029e-02
4 1 -3.42831815864992487e-03 1.00802844729867454e-02 -3.32117482979755255e-02
5 1 -1.93141747858624584e-02 -1.10165622072181217e-02 3.95574776175528636e-02
6 1 1.67860392440583803e-02 -2.28176577597037807e-02 1.80142693392060724e-02
7 1 1.12054851307042107e-03 1.80969195032820262e-03 1.32598180025758228e-02
8 1 -2.05089126604547992e-02 1.21610094775780747e-02 -1.19050306958541439e-02
8
Step 380
1 1 -5.11910148629428526e-03 2.28255163793697237e-02 5.42268948077882958e-03
2 1 2.78111607021516404e-02 -1.22033794578673485e-02 -1.38497032434574500e-02
3 1 -5.68057981918050018e-03 9.22739636055479838e-03 1.27631507434185099e-02
4 1 -2.33064657904021076e-03 8.82522691288705093e-03 -3.39184013671356283e-02
5 1 -2.11842455685181223e-02 -9.85997120025153446e-03 3.79923470249263484e-02
6 1 1.62280667537593633e-02 -2.47244467492844476e-02 1.71303743025784556e-02
7 1 -1.62728625969358318e-03 4.28970391347152473e-03 1.22600268958125234e-02
8 1 -2.17685523318608513e-02 1.32339114567551295e-02 -1.35849905769806385e-02
8
Step 390
1 1 -5.68935603275971986e-03 2.25666454180173635e-02 6.08386731555245284e-03
2 1 2.81205440696457483e-02 -1.14189980527764391e-02 -1.57351180019854736e-02
3 1 -4.63533121876840218e-03 9.13950212665633026e-03 1.25936189627560858e-02
4 1 -1.24670229787795985e-03 7.41398997398074952e-03 -3.41114508023890248e-02
5 1 -2.27949736805583211e-02 -8.48693996300418571e-03 3.58962832457736178e-02
6 1 1.54233209981366592e-02 -2.63918195267040454e-02 1.60050808178180369e-02
7 1 -4.31867074442336858e-03 6.69928570239685609e-03 1.11895553994804439e-02
8 1 -2.28446286930736112e-02 1.40594653715036908e-02 -1.50622643663562358e-02
8
Step 400
1 1 -6.31668305212392325e-03 2.20455657076458998e-02 6.61329539562180348e-03
2 1 2.80563557356309501e-02 -1.05332886034647868e-02 -1.73386252565953837e-02
3 1 -3.55954892760255038e-03 9.06782878884824714e-03 1.22929564579741420e-02
4 1 -1.85019323822672370e-04 5.87057674558493729e-03 -3.37935761650331457e-02
5 1 -2.41257041533280946e-02 -6.91904595566325466e-03 3.33036670529817530e-02
6 1 1.43936360582390486e-02 -2.78086749876632691e-02 1.46529399116751436e-02
7 1 -6.92836511049078809e-03 9.01609662110979850e-03 1.00555806476434108e-02
8 1 -2.37254034570796232e-02 1.46277487401716890e-02 -1.63177103810728495e-02
8
Step 410
1 1 -7.00116271384344530e-03 2.12732911258374027e-02 7.00683531090975746e-03
2 1 2.76293045804799492e-02 -9.56248178515889218e-03 -1.86374077399834477e-02
3 1 -2.46210458008110306e-03 9.00435243698737182e-03 1.18798528979466803e-02
4 1 8.46085843790778894e-04 4.22126585333370934e-03 -3.29762638491313889e-02
5 1 -2.51595733980892571e-02 -5.18147001168531036e-03 3.02564697768217712e-02
6 1 1.31642487032801927e-02 -2.89673089688895907e-02 1.30928024270664332e-02
7 1 -9.43217453279380884e-03 1.12191020489204665e-02 8.86608855676696180e-03
8 1 -2.44015552959745384e-02 1.49331494018141633e-02 -1.73356928778541398e-02
8
Step 420
1 1 -7.74089175041956911e-03 2.02639685433524709e-02 7.26264338871797279e-03
2 1 2.68556162110596963e-02 -8.52387526636031422e-03 -1.96138218817653691e-02
3 1 -1.35215653397246539e-03 8.94018828052107854e-03 1.13739998696756259e-02
4 1 1.83863253369033475e-03 2.49411463448665242e-03 -3.16795171816096968e-02
5 1 -2.58837890302849871e-02 -3.30246835078996459e-03 2.68033577913899604e-02
6 1 1.17632741889196982e-02 -2.98634909789598536e-02 1.13474172353398330e-02
7 1 -1.18073384775135345e-02 1.32889722255303214e-02 7.62973776274098424e-03
8 1 -2.48662890401782251e-02 1.49744660662349989e-02 -1.81043323277249590e-02
8
Step 430
1 1 -8.53202717762150883e-03 1.90345521755535471e-02 7.38114640788772609e-03
2 1 2.57566130184595579e-02 -7.43546860228867443e-03 -2.02556261773628454e-02
3 1 -2.39003602783939274e-04 8.86580242346436329e-03 1.07956503052054186e-02
4 1 2.78507844230588232e-03 7.18430448919050524e-04 -2.99313447157659764e-02
5 1 -2.62897910817581314e-02 -1.31277962732455843e-03 2.29986446629876357e-02
6 1 1.02211191976525791e-02 -3.04964351242980082e-02 9.44293663449822379e-03
7 1 -1.40328647415203928e-02 1.52084163555813983e-02 6.35571083567627870e-03
8 1 -2.51153659521727163e-02 1.47548855527959814e-02 -1.86156489809089568e-02
8
Step 440
1 1 -9.36886833037715513e-03 1.76044208405619247e-02 7.36496000350352585e-03
2 1 2.43581796143381886e-02 -6.31559445807714729e-03 -2.05560659112600345e-02
3 1 8.68050337602321084e-04 8.77123627936328767e-03 1.01651767969707894e-02
4 1 3.67840167553861504e-03 -1.07576503147940655e-03 -2.77670651919365817e-02
5 1 -2.63732992182744708e-02 7.55002963878028668e-04 1.89011495320298047e-02
6 1 8.56986045590865317e-03 -3.08686746692299618e-02 7.40835717938135695e-03
7 1 -1.60897956073962380e-02 1.69624405662874636e-02 5.05356346597684181e-03
8 1 -2.51470612450369474e-02 1.42818474401446727e-02 -1.88656022695939327e-02
8
Step 450
1 1 -1.02439712448188554e-02 1.59949625137287832e-02 7.21875887249074505e-03
2 1 2.26901474525438920e-02 -5.18256084327717564e-03 -2.05138264000049725e-02
3 1 1.95981520316549978e-03 8.64633710831357559e-03 9.50264603117484050e-03
4 1 4.51216004719185316e-03 -2.85825662624699306e-03 -2.52284758572712542e-02
5 1 -2.61342592711971689e-02 2.86706591561539320e-03 1.45730203500895120e-02
6 1 6.84261654658122574e-03 -3.09858562982369412e-02 5.27492478595874108e-03
7 1 -1.79614007372282218e-02 1.85385254914648655e-02 3.73308121874401343e-03
8 1 -2.49620605014548476e-02 1.35668137383693765e-02 -1.88540359997129460e-02
8
Step 460
1 1 -1.11482891321799272e-02 1.42291500036240883e-02 6.94911009942970892e-03
2 1 2.07856333351465090e-02 -4.05431593749939773e-03 -2.01328746493676762e-02
3 1 3.02731380017046440e-03 8.48098912935634983e-03 8.82742358009985101e-03
4 1 5.28052790416772954e-03 -4.59912460120652858e-03 -2.23629331147713918e-02
5 1 -2.55767086815088217e-02 4.98899173338982361e-03 1.00785744200623580e-02
6 1 5.07293664986629457e-03 -3.08564744865410280e-02 3.07553038636442042e-03
7 1 -1.96332985769251261e-02 1.99267261675205240e-02 2.40415142368198033e-03
8 1 -2.45633104428714041e-02 1.26249653363394634e-02 -1.85845447781103068e-02
8
Step 470
1 1 -1.20713333096127504e-02 1.23311284783323410e-02 6.56428157903118665e-03
2 1 1.86803635428050528e-02 -2.94814327398407140e-03 -1.94222137329820160e-02
3 1 4.06186052856427528e-03 8.26534103693881382e-03 8.15781937850663073e-03
4 1 5.97831301810067446e-03 -6.26919106261053169e-03 -1.92223910386357527e-02