8
Step 0
1 1  1.415085037505e+02   6.322842375918e+01   2.202084624276e+02 
2 1 -2.778435042451e+02  -3.138218497296e+02  -8.843962058332e+01 
3 1  1.406920592888e+02   5.562010864580e+02  -4.954259929110e+01 
4 1  1.569920420371e+00  -5.249952349313e+02   2.995119120833e+02 
5 1  1.220757322056e+02   2.716465050181e+02   3.363187634147e+01 
6 1 -2.998829803954e+01  -8.923183578220e+01   8.023695311866e+01 
7 1  3.201539551545e+02  -4.262352332529e+02  -2.720823248011e+02 
8 1 -3.041367549446e+02   3.931877029547e+01  -3.949575748481e+02 
8
Step 100
1 1  1.307429467445e+02  -5.051349495822e+02   4.803773676115e+02 
2 1 -1.994588951690e+02  -6.964860678902e+02  -1.402220469927e+01 
3 1  6.277646670729e+02  -2.417211970397e+02  -3.723701925040e+02 
4 1 -1.227332492706e+02  -7.463331646183e+01   1.026971160998e+02 
5 1  4.559079922376e+02  -1.748802603336e+02   8.232085691393e+01 
6 1  4.604542035328e+02  -5.151834291654e+02   4.256223446664e+02 
7 1  6.022810822571e+02  -3.802682310276e+02  -1.964551797870e+02 
8 1  3.876066302890e+01  -1.431382230557e+02  -1.316872455887e+02 
8
Step 200
1 1 -1.307582282276e+02  -3.955062810543e+02   3.119515620791e+02 
2 1  3.026701441220e+01  -3.707526079845e+02  -1.475247535596e+02 
3 1  3.755150292208e+02  -4.245933029030e+02  -1.826636747035e+02 
4 1 -1.586931652868e+02   5.174210338707e+02   2.499017332140e+00 
5 1  2.909491741213e+02  -3.460309616978e+02  -1.437678451151e+02 
6 1  4.190185028254e+02  -2.851588233043e+02   3.266808195903e+02 
7 1  3.120955016135e+02   1.644320122513e+02  -1.121891851833e+02 
8 1  3.507535013514e+02  -1.122818894936e+02   1.001648609036e+02 
8
Step 300
1 1 -4.572546862662e+02   2.368617266999e+02  -4.152485059998e+01 
2 1  1.877089567619e+02   2.856644296197e+02  -4.480941610336e+02 
3 1 -3.028474530548e+02  -2.346703007707e+01   2.277938936704e+02 
4 1  1.269332475721e+01   6.194549560625e+02   9.210271376232e+01 
5 1 -2.430350854888e+02  -1.210790950503e+02  -3.013977688283e+02 
6 1 -4.211802623662e+01   1.763592815393e+02  -3.657026603988e+01 
7 1 -2.595234437062e+02   4.881091425086e+02  -1.637678655889e+02 
8 1  2.603326034657e+02  -1.172152173720e+02   1.655010368191e+01 
8
Step 400
1 1 -3.694962439442e+02   5.734396601354e+02  -3.331462700800e+02 
2 1  9.180767134583e+01   5.272353375137e+02  -5.344198995277e+02 
3 1 -6.354245697348e+02   1.513903982513e+02   4.332836784937e+02 
4 1  2.908203858594e+02   1.225278417269e+02   1.405935210068e+02 
5 1 -3.886397601188e+02  -2.327060923209e+01  -2.477811293946e+02 
6 1 -3.582238075984e+02   2.691589375251e+02  -2.214883378670e+02 
7 1 -5.632830469435e+02   2.534039577606e+02  -1.696750408201e+02 
8 1 -1.309668877398e+02  -9.968996076999e+01  -9.278526378775e+01 
8
Step 500
1 1  1.710088174755e+02   2.362670324253e+02  -4.156752462520e+02 
2 1  2.923044990597e+01   1.658803043622e+02  -1.625951386532e+02 
3 1 -3.622650762846e+02  -1.887114810868e+02   3.761577743321e+02 
4 1  2.966463183708e+02  -5.539616188328e+02  -2.347104046644e+02 
5 1 -2.931060220250e+01  -2.132374469000e+02   3.634010779645e+01 
6 1 -2.076032724427e+02  -2.021280889808e+01  -1.206843932970e+02 
7 1 -3.360486234601e+02  -1.794256660934e+02   5.038961694372e+01 
8 1 -4.233813190641e+02   4.433215111125e+01   9.051000414879e+00 
8
Step 600
1 1  5.927681680826e+02  -3.803041899653e+02  -2.984585888738e+02 
2 1 -9.697552053082e+01  -2.609319423280e+02   4.522257931158e+02 
3 1  1.869001257371e+02  -5.490539586418e+02  -3.560442049201e+01 
4 1 -6.061004483755e+01  -7.705172560128e+02  -5.735156614950e+02 
5 1  4.038286919936e+02  -2.672470387163e+02   2.364245467323e+02 
6 1  1.391136506643e+02  -1.829570769045e+02   5.729250436019e+01 
7 1  9.621527239181e+01  -2.631854634285e+02   3.754975216123e+02 
8 1 -3.948079545508e+02   1.613860154834e+02   2.444979012793e+02 
8
Step 700
1 1  3.864525088677e+02  -6.095587378920e+02  -6.001314456217e+01 
2 1 -1.904975166675e+02  -3.545771617789e+02   7.244636977000e+02 
3 1  2.570652386468e+02  -3.154415130737e+02  -4.327592605591e+02 
4 1 -4.527950538265e+02  -3.012273347875e+02  -3.133417453279e+02 
5 1  4.613153192430e+02   9.287629732901e+01   1.649367443234e+02 
6 1  2.329329149741e+02  -8.341690083542e+01   7.478959019596e+01 
7 1  2.926706301344e+02   2.855046786817e+01   4.485208575360e+02 
8 1 -7.235430495618e+01   9.589734172772e+01   2.818300809024e+02 
8
Step 800
1 1 -1.790305311594e+02  -2.855000385451e+02   1.270690685511e+02 
2 1 -1.636909366239e+01  -8.228040535299e+01   4.265437370931e+02 
3 1 -1.258570538954e+02   3.442028772059e+02  -4.065321527429e+02 
4 1 -4.461792384595e+02   3.784244263534e+02   2.515616022017e+02 
5 1 -7.310396798804e-01   4.426633483340e+02  -2.072673819135e+01 
6 1  5.526577593232e+01   3.116798861715e+01  -3.704034939215e+00 
7 1  1.257382857608e+02   2.577508113112e+02   1.775094305399e+02 
8 1  1.925807018998e+02  -1.677333501929e+02   3.418759649083e+01 
8
Step 900
1 1 -5.342301084073e+02   1.976563329127e+02   2.045929210367e+02 
2 1  1.991002305105e+02   2.140737153040e+02  -1.485845871829e+02 
3 1 -2.873706787893e+02   6.700627784844e+02  -5.966556824823e+01 
4 1  4.740135464076e+00   6.722176909875e+02   4.351872672028e+02 
5 1 -3.946162428158e+02   4.516178493523e+02   7.441566787846e+00 
6 1 -9.594158969344e+01  -7.943383637053e+01  -2.309346865289e+01 
7 1 -1.072898288807e+02   1.408713136422e+02  -1.941088815178e+02 
8 1  1.783618494283e+02  -4.036064014498e+02  -2.441559659793e+02 
8
Step 1000
1 1 -3.800712717802e+02   4.267863315396e+02   1.775622270212e+02 
2 1  3.177885416753e+02   2.658708290503e+02  -4.344237767029e+02 
3 1  1.252059167608e+02   2.816664085193e+02   2.234185748212e+02 
4 1  4.672826528623e+02   3.908254628320e+02   5.382293554933e+01 
5 1 -4.499901699161e+02  -7.976975306584e+00   1.139233881646e+02 
6 1 -1.386079018409e+01  -2.504680097861e+02   1.574290892681e+01 
7 1 -1.511999018421e+02  -7.079355101912e+01  -3.258874696081e+02 
8 1  5.663131274705e+00  -1.706679588239e+02  -1.924684741438e+02 
8
Step 1100
1 1  5.146987474785e+01   2.952500652857e+02   1.605037780172e+02 
2 1  1.116398150592e+02   1.815122264341e+02  -2.708614644774e+02 
3 1  5.873738754067e+02  -3.308079929927e+02   2.074583240943e+02 
4 1  4.584430097226e+02  -1.033700754809e+02  -3.240955483248e+02 
5 1 -1.873286926204e+02  -5.469657523014e+02   1.323177789745e+02 
6 1  1.459023855842e+02  -1.308148864438e+02  -1.499540194218e+01 
7 1 -4.054354875551e+01  -6.018407611791e+00  -1.634604196366e+02 
8 1  7.627265243791e+01   4.411123726275e+02   3.791125524030e+01 
8
Step 1200
1 1  2.865582742260e+02   4.003356445044e+01   1.241097233761e+01 
2 1 -2.927628144309e+02  -3.752474731525e+01   1.740187304346e+02 
3 1  4.484396846308e+02  -4.453313889664e+02   4.724484308186e+01 
4 1  1.506402499171e+01  -3.184893022077e+02  -1.609744025823e+02 
5 1  3.115991146188e+02  -3.704507677575e+02  -1.419779119709e+02 
6 1  1.232842946823e+02   2.664161065791e+02  -1.255101339110e+02 
7 1  4.139510359538e+01   2.072706677112e+02   2.413501357458e+01 
8 1  2.712439517579e+02   6.637851319253e+02   2.436064064558e+02 
8
Step 1300
1 1  2.009988513405e+02  -8.568339774702e+01  -1.274371664664e+02 
2 1 -4.287540219854e+02  -2.465668973132e+02   3.743268150801e+02 
3 1 -1.776811254369e+02  -2.344408253906e+01  -6.845782484642e+00 
4 1 -3.559837032794e+02  -1.631158714360e+02   2.973025961698e+02 
5 1  5.915689787809e+02   1.974754997531e+02  -4.015248981814e+02 
6 1 -9.870236183410e+01   5.039733533899e+02  -1.824410082162e+02 
7 1  4.809208920997e+01   1.252578219744e+02   9.763588094784e-01 
8 1  3.190677641581e+02   2.434324096518e+02   1.354488048084e+02 
8
Step 1400
1 1  8.799363596603e+01  -1.103930059583e+02  -1.839237645260e+02 
2 1 -1.203643079373e+02  -3.126470029358e+02   1.105109377989e+02 
3 1 -5.688828225509e+02   3.767235070010e+02   4.926565035579e+01 
4 1 -2.925545054704e+02   5.217996965945e+01   3.840003376726e+02 
5 1  4.071042722210e+02   4.018285547808e+02  -2.783268286788e+02 
6 1 -2.893059037024e+02   2.569467505481e+02  -6.136995836678e+01 
7 1  7.509131436111e+01  -3.340684485859e+02  -1.411124548107e+02 
8 1  5.438097730734e+01  -3.714049743552e+02  -1.423387459481e+02 
8
Step 1500
1 1  5.320638161428e+01  -3.777748613307e+01  -1.766786811208e+02 
2 1  2.699859830682e+02  -1.815711253182e+02  -3.425771316186e+02 
3 1 -2.849083361117e+02   2.548262952241e+02   1.070045093207e+02 
4 1  6.860024650540e+01   1.810518300743e+01   2.337611297645e+01 
5 1 -1.406517181923e+02   6.267543566716e+01   2.418239515878e+02 
6 1 -2.301195192146e+02  -2.234560778928e+02   1.347088157953e+02 
7 1  1.727265825435e+02  -6.743198538163e+02  -1.264574235362e+02 
8 1 -3.092959833122e+02  -5.758394453561e+02  -3.780412244321e+02 
8
Step 1600
1 1 -2.401433884766e+00   7.037128027613e+01  -7.345662675037e+00 
2 1  2.847465130283e+02   7.797204414849e+01  -5.039176155901e+02 
3 1  2.514640362479e+02  -1.740076552740e+02   4.444121879614e+01 
4 1  3.038280498960e+02  -1.804295531772e+02  -3.361713516425e+02 
5 1 -5.416504409948e+02  -2.583474594929e+02   5.395470034344e+02 
6 1  3.213188476962e+00  -3.971108786599e+02   2.147972608953e+02 
7 1  1.937206162694e+02  -4.165499593161e+02   1.197271663935e+02 
8 1 -5.232772514316e+02  -2.723048369061e+02  -2.500733195574e+02 
8
Step 1700
1 1 -1.207960026226e+02   1.127390353403e+02   1.591163893482e+02 
2 1 -1.707901382638e+01   2.690219918487e+02  -1.854282110066e+02 
3 1  3.386680760731e+02  -3.225545080580e+02  -3.283189912772e+01 
4 1  1.657459603270e+02  -2.652184865321e+02  -2.042848495938e+02 
5 1 -4.650619684383e+02  -8.503096346451e+01   2.246948021566e+02 
6 1  1.647056707317e+02  -1.074429232074e+02   1.360969575836e+02 
7 1  1.335780925417e+01   2.491959646105e+02   3.232756621245e+02 
8 1 -4.220641626908e+02   1.215670314359e+02   1.451132940854e+02 
8
Step 1800
1 1 -1.570233536304e+02   4.963519170720e+00   1.355098384803e+02 
2 1 -2.137575921981e+02   2.219784413437e+02   2.238921939519e+02 
3 1 -8.216861236628e+01  -3.905863546202e+01  -8.148320313202e+01 
4 1 -1.735648794965e+02  -6.065492554249e+01   2.438297967975e+02 
5 1 -7.409235694712e+01   2.332849363328e+02  -3.257384794758e+02 
6 1  1.648824367294e+02   2.227562706994e+02   2.856443445500e+01 
7 1 -2.551382148172e+02   6.705453289323e+02   2.344310715368e+02 
8 1 -1.383751355634e+01   2.487021134428e+02   4.580054899924e+02 
8
Step 1900
1 1 -1.943483795448e+01  -1.780868916948e+02  -2.671859218629e+01 
2 1 -1.052329121801e+01   2.530175133417e+01   3.299593463495e+02 
3 1 -4.523008663477e+02   2.313186953658e+02  -8.061489949335e+01 
4 1 -3.122075803765e+02   2.892239637129e+02   3.309131218395e+02 
5 1  1.910594280355e+02   1.666155676318e+02  -4.642640367918e+02 
6 1  1.072570725609e+02   1.648851069337e+02  -2.835006818619e+01 
7 1 -3.624271397820e+02   4.848756848396e+02  -5.769536190573e+01 
8 1  4.309917098104e+02   5.410138215072e+01   3.640660930869e+02 
8
Step 2000
1 1  1.546041442540e+02  -3.641947289949e+02  -1.891976917669e+01 
2 1  2.960285580155e+02  -8.204853427145e+01   1.104028555719e+02 
3 1 -3.179574362198e+02   1.058015225824e+02  -9.733131480242e+01 
4 1 -1.411611036073e+02   4.548804420863e+02  -1.263683466888e+02 
5 1  1.566275500339e+02  -1.525467615312e+02  -1.127068575407e+02 
6 1  8.914847577252e+01  -1.872943114547e+02  -6.250744517934e+01 
7 1 -1.895174824014e+02  -4.263136665942e+00  -2.145364359955e+02 
8 1  5.681075116462e+02  -1.629985952918e+02  -6.508663696327e+01 
8
Step 2100
1 1  1.059916227527e+02  -3.330735745339e+02   1.060634979727e+02 
2 1  2.484341800139e+02  -6.648047888096e+00  -9.753601900072e+01 
3 1  1.378763859095e+02  -1.762991514530e+02  -1.004606014353e+02 
4 1  1.274955336960e+02   2.784729843522e+02  -5.730003360755e+02 
5 1  3.346611654680e+01  -3.335979481360e+02   3.029151355773e+02 
6 1  7.026758178623e+01  -3.405126572526e+02  -1.146842248170e+02 
7 1  9.585267047293e+01  -2.817754655322e+02  -8.651981126108e+01 
8 1  2.738246536992e+02  -1.021577544265e+02  -3.495474085338e+02 
8
Step 2200
1 1 -2.317050312137e+02   8.437867514760e+01   1.465959012749e+02 
2 1 -1.274620244363e+02   5.373226636100e+01  -3.912840676745e+01 
3 1  4.039627228685e+02  -2.032344190808e+02  -4.323900613256e+01 
4 1  2.506168724099e+02  -1.263635418369e+02  -4.531764224617e+02 
5 1  8.384723749014e+01  -2.023533243849e+02   4.190900379192e+02 
6 1 -2.275726604615e+01  -8.784667932242e+01  -1.092564613680e+02 
7 1  2.432903051225e+02  -1.631949805675e+02   1.224322355900e+02 
8 1 -1.801968997857e+02   2.272385818434e+02  -3.178302564687e+02 
8
Step 2300
1 1 -4.095938328986e+02   4.778745827068e+02  -5.011921198523e+01 
2 1 -4.121780124088e+02   8.720511473477e+00   1.659852816177e+02 
3 1  3.569127368293e+02   4.641425123704e+00   9.870873499606e+01 
4 1  4.893989526227e+01  -2.978613005972e+02   1.193230706505e+02 
5 1  3.009199540644e+02   1.526809672452e+02   1.429076233178e+02 
6 1 -1.391855497367e+02   2.758775341162e+02  -1.269443964809e+01 
7 1  1.806613326883e+02   7.176170866762e+01   1.107106928108e+02 
8 1 -4.504996558712e+02   3.341947625536e+02  -7.058013694235e+01 
8
Step 2400
1 1 -5.877837333383e+01   5.480699817758e+02  -3.383282156810e+02 
2 1 -2.818215238296e+02  -1.080936704733e+02   2.116160218163e+02 
3 1  1.628729194161e+02   1.645083863580e+02   2.418606950940e+02 
4 1 -1.059973202106e+02  -3.336138195874e+02   4.570810686434e+02 
5 1  2.655013306076e+02   2.903898457700e+02  -1.886376275695e+02 
6 1 -1.980526573187e+02   3.069945291368e+02   1.183826906836e+02 
7 1  3.414334718582e+01   1.221106740466e+02  -1.231187330711e+02 
8 1 -3.988019206859e+02   2.043501732650e+02   5.121095554297e+01 
8
Step 2500
1 1  5.106152096404e+02   1.660191848837e+02  -3.495911318942e+02 
2 1  9.805953365578e+01  -1.898961442663e+02   8.323142662854e+01 
3 1  2.467972949691e+01   1.721011419129e+02   1.034964580869e+01 
4 1 -1.129974999512e+02  -1.923444785243e+02   3.192902278859e+02 
5 1 -1.431561749014e+02   7.195122633685e+01  -3.354279579909e+02 
6 1 -1.795041627316e+02  -1.679780631236e+01   9.981392220077e+01 
7 1 -4.712679207579e+01   7.098279288758e+00  -2.749071577986e+02 
8 1  1.154727367342e+01  -1.387347735474e+02   9.777635855280e+01 
8
Step 2600
1 1  7.067556584126e+02  -3.709533783878e+02  -2.602390174329e+01 
2 1  2.392963342980e+02  -4.186697497004e+01  -1.494061490419e+02 
3 1  1.450799161782e+01  -1.675161112105e+02  -1.306671213826e+02 
4 1 -4.532501670200e+01   7.765268499473e+01  -1.066245646210e+01 
5 1 -5.968415987797e+02  -1.588951942449e+02  -2.784054181148e+02 
6 1 -7.410091875964e+01  -2.895909553100e+02  -6.655881730304e+01 
7 1 -3.618059938360e+01  -9.259661565487e+01  -1.146406535022e+02 
8 1  3.828227209136e+02  -3.097052764904e+02   1.378852162649e+02 
8
Step 2700
1 1  2.372199295313e+02  -5.422181264723e+02   3.479522397018e+02 
2 1  7.107071374093e+01   8.302509707182e+01  -2.170403108412e+02 
3 1 -1.342546719162e+02  -3.696638138018e+02   5.153120276072e+01 
4 1  2.419511786294e+01   3.600707304306e+02  -5.199419846788e+01 
5 1 -5.783508219139e+02  -7.666859810654e+01  -1.239508600429e+02 
6 1  1.008729379146e+02  -1.733049982060e+02  -1.746772059177e+02 
7 1  2.773153374201e+00  -1.453613108833e+02   1.944373279428e+02 
8 1  4.050018319334e+02  -2.456267068405e+02   2.079590743141e+02 
8
Step 2800
1 1 -4.849433925974e+02  -1.989845335752e+02   4.575909531537e+02 
2 1 -1.022360085028e+02   6.130439631950e+01  -1.466481002372e+02 
3 1 -4.373551070150e+02  -3.125186881645e+01   2.493619229868e+02 
4 1  1.302165580090e+02   3.878604426664e+02   2.283080060995e+02 
5 1  1.893897012715e+01   1.597715009688e+02   7.702867589253e+01 
6 1  2.858470019965e+02   2.236688797061e+02  -6.049443053045e+01 
7 1  2.197829203498e+01  -2.334277493380e+02   2.720325730090e+02 
8 1  4.302006659566e+01  -5.866316285262e+01   2.217539440922e+02 
8
Step 2900
1 1 -7.084190773156e+02   3.422373423864e+02   2.359344555991e+02 
2 1 -1.370759876286e+01  -6.600617978717e+01  -2.289316930092e+02 
3 1 -4.229175273333e+02   3.906840824012e+02   8.435324623595e+01 
4 1  1.562494144069e+02   1.927435818711e+02   3.487297400020e+02 
5 1  6.561545853417e+02   2.269398545678e+02   3.762260637994e+02 
6 1  3.114869777999e+02   4.589774523852e+02   1.600599562222e+02 
7 1  3.180899862963e+00  -2.856294950495e+02   1.490749902459e+01 
8 1 -4.181360030103e+02   1.424497628350e+02   6.220978693087e+00 
8
Step 3000
1 1 -2.171744484935e+02   5.105142294927e+02  -2.827537088307e+01 
2 1  2.083333555666e+02  -1.724153815277e+01  -3.191858980729e+02 
3 1 -2.745925189449e+01   4.576471164380e+02  -2.260971222070e+02 
4 1  6.647539246464e+01  -1.631050135524e+02  -7.947801004345e+01 
5 1  6.903205186580e+02  -1.840676055716e+01   4.310784109572e+02 
6 1  9.806874829800e+01   2.439453736329e+02   1.682019941288e+02 
7 1 -2.699082778730e+01  -1.063784817790e+02  -2.443946143606e+02 
8 1 -5.679757586756e+02   2.687536829013e+02  -3.310078533789e+02 
8
Step 3100
1 1  3.257852517259e+02   1.424574789445e+02  -6.818381743691e+01 
2 1  2.076373685877e+02   1.530530386423e+02  -2.924468069577e+02 
3 1  3.547313500961e+02   1.599322822945e+02  -2.472651201579e+02 
4 1 -9.629514330406e+01  -4.448289478978e+02  -5.434358959565e+02 
5 1  9.272745267899e+01  -2.662078153999e+02   1.157057850055e+02 
6 1 -2.312827157535e+02  -1.968879570232e+02  -3.367503499999e+01 
7 1 -4.565378118430e+01   3.029370652398e+02  -1.262296181494e+02 
8 1 -1.124928567387e+02   2.377327262126e+02  -4.645048775492e+02 
8
Step 3200
1 1  3.410266847969e+02  -3.602926544086e+02  -7.719016773065e+01 
2 1 -1.391018747286e+02   2.070908219380e+02   1.466490963744e+02 
3 1  3.218430692913e+02  -2.361360696520e+02   1.620942194516e+01 
4 1 -9.102591205530e+01  -4.010476621036e+02  -5.782217002246e+02 
5 1 -4.808988937171e+02  -2.326736045931e+02  -2.219800993246e+02 
6 1 -3.516015028924e+02  -4.353699125078e+02  -1.604741058058e+02 
7 1 -2.601139502199e+01   5.880968577292e+02   2.285682638143e+02 
8 1  5.305688546882e+02   3.044513373366e+01  -1.971941113266e+02 
8
Step 3300
1 1 -1.360491649039e+01  -5.736518573936e+02  -2.646516779693e+02 
2 1 -3.412151882788e+02   8.790476909224e+01   7.340171401298e+02 
3 1 -6.751217531168e+01  -3.714670269427e+02   1.621729944228e+02 
4 1  1.178229711361e+02  -1.002087367677e+02  -1.453868469442e+02 
5 1 -5.205519862098e+02  -6.778087898647e+00  -3.269299684132e+02 
6 1 -1.726192604679e+02  -2.713788011110e+02  -2.685507861530e+01 
7 1  3.034124432356e+01   3.994229284796e+02   3.219092307732e+02 
8 1  6.835519363762e+02  -2.624204728216e+02   2.415713962682e+02 
8
Step 3400
1 1 -2.456948787888e+02  -2.075097889546e+02  -4.792042635941e+02 
2 1 -6.051596255429e+01  -2.181177686979e+02   7.467420613058e+02 
3 1 -2.852421300098e+02  -1.838957168985e+02  -3.430526126970e+01 
4 1  1.475495526029e+02   1.626266597841e+02   2.581014931158e+02 
5 1 -2.103390331103e+02   1.824453109930e+02  -1.797727360428e+02 
6 1  1.306419356835e+02  -9.459703256078e+00   1.914715003088e+02 
7 1  4.146690397930e+01  -1.282360833457e+02  -2.942413515360e+01 
8 1  2.564579237347e+02  -4.069860023206e+02   4.362683906463e+02 
8
Step 3500
1 1 -1.405453421876e+02   3.836232780801e+02  -4.898859383774e+02 
2 1  2.684376885622e+02  -3.636656479456e+02   1.488995685343e+02 
3 1 -2.937013721439e+00   4.278369031437e+01  -3.070613731368e+02 
4 1 -1.286037970090e+02   2.161518505483e+02   2.380568531074e+02 
5 1  5.084246119672e+01   4.790178109157e+00   1.573861536124e+02 
6 1  2.279779978786e+02   4.849676805283e+01   1.700804323985e+02 
7 1 -6.637170597087e+01  -4.543764623084e+02  -4.029936504814e+02 
8 1 -3.547429687893e+02  -1.670394490645e+02   2.001691674449e+02 
8
Step 3600
1 1  4.695046095505e+01   5.649723033520e+02  -6.504114743316e+01 
2 1  1.889277628017e+02  -1.275512485456e+02  -4.228228474760e+02 
3 1  4.323212499848e+02   6.495609060398e+01  -2.219276266465e+02 
4 1 -4.192665459812e+02   1.293255436764e+02   4.035552086157e+01 
5 1  9.527477541543e+01  -2.126477470779e+02   2.376020312693e+02 
6 1  4.234077683767e+01  -8.653066167504e+01  -7.824479923619e+01 
7 1 -2.167039374721e+02  -2.734959734899e+02  -3.123053156443e+02 
8 1 -5.959898453010e+02   1.813622317494e+02  -1.244431603343e+02 
8
Step 3700
1 1  8.094815642205e+01   2.046987265596e+02   5.377191168384e+02 
2 1 -1.486301872315e+02   1.640073275961e+02  -4.193643218987e+02 
3 1  4.054285934958e+02  -3.593097750144e+01   2.017837948136e+02 
4 1 -3.977352855945e+02   7.457895034906e+01   6.420005901840e+01 
5 1  1.500717039350e+02  -1.482988771462e+02  -3.971554894261e+00 
6 1 -1.321714690461e+02  -1.377082929457e+02  -2.302082720596e+02 
7 1 -1.845452843359e+02   1.378460167313e+02   1.432477469581e+02 
8 1 -3.360866511654e+02   3.344342845412e+02  -1.733439730727e+02 
8
Step 3800
1 1  2.084100493195e+01  -3.258771440268e+02   7.947722251962e+02 
2 1 -2.504791360042e+02   1.531380329932e+02  -9.073256022151e+01 
3 1 -1.359852978237e+02  -6.294697710745e+01   5.122107038496e+02 
4 1  4.956225842923e+01   1.010684488889e+02   2.633411023959e+02 
5 1  3.225830872259e+02   1.738765290483e+02  -2.489182304507e+02 
6 1 -8.490156477052e+01   8.065175443865e+01  -1.110067465455e+02 
7 1  1.167155170817e+02   3.052155744574e+02   4.395397667168e+02 
8 1  6.691292797366e+01   2.489620680001e+02   2.405613669889e+01 
8
Step 3900
1 1  3.712462062500e+01  -5.152518140538e+02   4.934686747046e+02 
2 1 -1.795561114587e+01   2.414775308880e+01   1.347020609120e+01 
3 1 -5.474461433789e+02   1.432381569034e+01   3.244066809228e+02 
4 1  4.743382888502e+02   1.304045186988e+02   2.403001811638e+02 
5 1  3.745581887953e+02   3.783353109759e+02  -2.013382393263e+02 
6 1  1.135602801937e+02   4.189450138248e+02   8.086241403111e+01 
7 1  4.682324997288e+02   5.039851161829e+01   2.302002750359e+02 
8 1  2.353403217669e+02   6.831037955760e+01   1.351242960452e+02 
8
Step 4000
1 1  1.450830052826e+02  -2.173405429295e+02  -8.851404561493e+01 
2 1  2.135704439599e+02  -6.211135265811e+00  -1.642355319072e+02 
3 1 -4.059399811583e+02   1.564974729479e+02  -1.430790419122e+02 
4 1  4.361952793414e+02   5.063010033426e+01  -9.746963459870e+01 
5 1  9.325634947094e+01   2.313628777375e+02   4.262348264741e+01 
6 1  1.510665441595e+02   5.341544301931e+02   5.112442139726e+01 
7 1  4.747857933602e+02  -3.150798559385e+02  -2.165682528151e+02 
8 1  1.681475811789e+02  -1.671367141863e+01   1.089486069264e+01 
8
Step 4100
1 1  1.491722295965e+02   2.111471167426e+02  -3.939101767518e+02 
2 1  6.990270134382e+01   2.685158245974e+02  -2.120496581197e+02 
3 1  7.566984881950e+01   1.561232959629e+02  -4.036349406319e+02 
4 1  7.885130180192e+01  -1.498147722905e+02  -3.332749479494e+02 
5 1 -2.989253097580e+02  -4.965751013764e+01   1.540701936323e+02 
6 1  2.396404783525e+01   2.033612327617e+02  -1.342812653659e+02 
7 1  2.571845429646e+01  -3.720650071688e+02  -3.735648070289e+02 
8 1  9.284834684483e+01  -7.329382248424e+01  -1.555747397146e+02 
8
Step 4200
1 1 -6.290936079740e+01   4.055221000513e+02  -3.124317910244e+02 
2 1 -1.843785145396e+02   3.856586000375e+02   8.238629569481e+01 
3 1  3.609090411431e+02   1.132431356764e+02  -2.520175774055e+02 
4 1 -1.272148376231e+02  -3.443292930817e+02  -1.234892830493e+02 
5 1 -3.809628551231e+02  -1.554570813398e+02   6.272582583191e+01 
6 1 -8.427179127392e+01  -2.871210613401e+02  -1.385522150802e+02 
7 1 -5.060543896368e+02  -6.051936814485e+01  -1.299089296506e+02 
8 1  1.492167899772e+02  -2.463819154382e+02  -1.490778659882e+02 
8
Step 4300
1 1 -2.066509112801e+02   2.718802522342e+02  -1.509379652416e+02 
2 1 -1.297191609715e+02   3.606318202938e+01   3.712079322155e+02 
3 1  1.742074288728e+02   3.447023488249e+01   5.026490401445e+01 
4 1 -8.338169014202e+00  -3.293133140082e+02   2.564555591240e+02 
5 1 -1.091499189556e+02  -5.991201836752e+01  -1.541268377867e+01 
6 1 -2.036869878844e+01  -4.752484698371e+02   1.441267043367e+02 
7 1 -6.043428860103e+02   2.908981426000e+02   1.513297148080e+02 
8 1  1.806559014628e+02  -3.432978588708e+02  -2.639228587061e+01 
8
Step 4400
1 1 -6.947128221518e+01   2.181205977695e+00  -1.401210014353e+02 
2 1  1.515224393275e+02  -4.730268669335e+02   2.662577756469e+02 
3 1 -1.782067360400e+02  -9.931673382296e+01   1.264543836268e+02 
4 1  1.166589763262e+02  -3.293046031576e+01   2.552025491090e+02 
5 1  1.276354097951e+02   8.971149301090e+00   6.796128200706e+01 
6 1  7.233226155908e+01  -1.888181606761e+02   3.853876550599e+02 
7 1 -1.663932710270e+02   3.290935198887e+02   1.527374055074e+02 
8 1  3.601262871650e+01  -1.864792820673e+02  -8.031330535707e+00 
8
Step 4500
1 1  1.905107896156e+02  -1.577022804318e+02  -2.142500585655e+02 
2 1  3.122554987963e+02  -5.521443384484e+02  -8.153804854047e+01 
3 1 -2.683700070105e+02  -2.308571518421e+02   1.372686701104e+01 
4 1 -9.933582508754e+01   3.183683378063e+02  -1.954634570242e+02 
5 1 -2.097556247521e+01  -1.167705691382e+02   1.825747847715e+02 
6 1 -1.812187551626e+01   1.372976801724e+02   2.087864907628e+02 
7 1  3.739516431091e+02   5.074955706090e+01   6.367849049598e+00 
8 1 -2.249134105017e+02   1.602846963403e+02  -8.602900189620e+01 
8
Step 4600
1 1  1.758499124299e+02  -2.200336973495e+02  -8.638569995635e+01 
2 1  8.957301061506e+01  -1.856038839538e+02  -2.543033981350e+02 
3 1  5.123081999612e+01  -1.751792943052e+02  -3.503190012456e+00 
4 1 -4.755982464142e+02   4.360103802184e+02  -5.539164284592e+02 
5 1 -2.865492983395e+02  -2.753347173242e+02   8.723040981968e+01 
6 1 -2.135474243755e+02   7.750600976126e+01  -2.188572261677e+02 
7 1  5.115544360261e+02  -2.442170882236e+02  -3.959077451881e+00 
8 1 -3.776545552612e+02   3.811266275265e+02  -2.380243231725e+01 
8
Step 4700
1 1 -1.318611688529e+02  -1.342573046014e+02   2.003741032350e+02 
2 1 -2.586151604890e+02   2.469932141064e+02  -7.960757455791e+01 
3 1  3.416560251731e+02  -1.044202794716e+01   1.486031507927e+02 
4 1 -4.952895460646e+02   1.332885752169e+02  -3.776243170875e+02 
5 1 -1.510792805308e+02  -2.107367093575e+02  -1.275220160973e+02 
6 1 -2.295195637722e+02  -2.423468907588e+02  -3.593509925205e+02 
7 1  1.544082782578e+02  -2.247783758871e+02   1.395677184129e+02 
8 1 -2.268994019386e+02   1.794280718865e+02   2.594124476013e+02 
8
Step 4800
1 1 -3.460270587611e+02   5.148956646834e-02   3.250093170299e+02 
2 1 -3.639811019752e+02   3.128033269662e+02   1.938009034676e+02 
3 1  2.220547434373e+02   1.253421996728e+02   2.759647220328e+02 
4 1  1.004898440403e+01  -2.238697801230e+02   1.395185377928e+02 
5 1  3.650593247497e+02   8.515745475517e+01  -1.879322027410e+02 
6 1  4.291424629700e+01  -3.639331627067e+02  -4.167276439114e+01 
7 1 -2.781906796730e+02   1.016087365131e+02   1.722622639878e+02 
8 1  1.042428094091e+02  -1.868531410831e+02   3.896060584175e+02 
8
Step 4900
1 1 -2.516801882374e+02   9.830592947459e+01   2.456541750052e+02 
2 1 -7.238457424958e+01   7.380938479345e+01   1.421663925808e+02 
3 1 -1.037405107436e+02   2.090592007392e+02   9.307747114891e+01 
4 1  4.576179012128e+02  -3.552681950382e+02   3.025828803671e+02 
5 1  7.129982225447e+02   3.309512022458e+02  -5.533585817272e+01 
6 1  3.469615733272e+02   1.112668115255e+00   3.172227563172e+02 
7 1 -4.103095171489e+02   4.515265682738e+02  -3.002864177303e+01 
8 1  2.850592102673e+02  -2.619439162916e+02   2.153079673054e+02 
8
Step 5000
1 1  9.876707752103e+01   1.603153395730e+02   3.047329530635e+01 
2 1  2.650823290897e+02  -7.045762239092e+01  -1.007403612783e+02 
3 1 -2.760003865437e+02   1.702645471110e+02  -3.498703263388e+02 
4 1  3.936172252165e+02  -1.986972615741e+02   1.473156319408e+02 
5 1  3.332892929171e+02   3.052935119483e+02   8.526198254750e+01 
6 1  3.200585275216e+02   4.940017077351e+02   1.986533177597e+02 
7 1 -1.609410201630e+02   4.193672789507e+02  -3.161927595157e+02 
8 1  1.703996085592e+02   5.577375171640e+01  -1.771597046088e+02 
8
Step 5100
1 1  3.669013962194e+02   2.756769819582e+01  -7.510766529677e+01 
2 1  2.845906046902e+02   9.470241923493e+01  -1.490371407086e+02 
3 1 -1.948809561016e+02  -7.058328571327e+01  -6.327636977584e+02 
4 1  5.716830357946e+01   1.730008473214e+02   1.051159395460e+02 
5 1 -4.113071545328e+02   4.292270809966e+01  -9.689247639618e+00 
6 1 -3.071371163006e+01   5.440070100947e+02  -2.701496866309e+02 
7 1  2.380175412044e+02  -1.127363672568e+02  -2.802888418389e+02 
8 1 -1.343117104115e+02   4.182895009641e+02  -4.473175119330e+02 
8
Step 5200
1 1  2.388826031514e+02  -2.259169253101e+02   9.724309076857e+01 
2 1  8.020887675309e+01   2.431614127195e+02   3.808589169604e+01 
3 1  1.351150461569e+02  -2.290174121884e+02  -3.627349685927e+02 
4 1 -1.934276843748e+02   3.493997117377e+02   8.873349720286e+01 
5 1 -7.912682135258e+02  -2.379593277952e+02  -1.554229017846e+02 
6 1 -3.085605087523e+02   7.832147221249e+01  -4.568127018932e+02 
7 1  4.193073306378e+02  -6.464142392154e+02   4.780054238997e+01 
8 1 -1.285784975346e+02   3.249052291703e+02  -2.822824081140e+02 
8
Step 5300
1 1 -7.182621404169e+01  -2.535159780199e+02   1.311709578106e+02 
2 1 -8.454424737287e+01   2.216097069876e+01   1.539379191023e+02 
3 1  3.092026890866e+02  -1.385072246452e+02   2.841759619149e+02 
4 1 -3.624329001932e+01   9.237369045120e+01   6.494143347632e+01 
5 1 -4.153930195807e+02  -2.324794276803e+02  -1.360094110230e+02 
6 1 -2.294830701150e+02  -3.732905921634e+02  -7.552293160442e+01 
7 1  2.614857751080e+02  -6.015139772287e+02   3.032695062776e+02 
8 1  1.401578546871e+02  -1.761305018910e+02   7.941720597969e+01 
8
Step 5400
1 1 -1.842762160433e+02   4.597810735618e+01  -1.795356968570e+02 
2 1 -9.796660465411e+01  -3.263223042436e+02  -7.229129173405e+01 
3 1  1.093683318675e+02   6.346384119966e+01   7.450398580281e+02 
4 1  2.437952400944e+02  -2.382964773808e+02   1.731146631622e+01 
5 1  2.139476960478e+02   1.777997820988e+00   5.237004014156e+01 
6 1  4.303199630669e+01  -3.356933486803e+02   3.886020270986e+02 