8
Step 0
1 1  1.976204776260e+02  -1.327257613333e+01   2.703176273771e+02 
2 1  2.003061905833e+02  -2.544223981605e+02   3.731957994478e+01 
3 1  3.175536340511e+01   7.854931605754e+01   2.211130902848e+02 
4 1  1.106521732543e+02  -1.894472683087e+02   2.165739811924e+02 
5 1 -2.560395550905e+02   9.179978589662e+01  -8.380647691923e+01 
6 1  3.277134704153e+02   3.549403928910e+02  -3.306515228372e+02 
7 1  3.843816880327e+01   1.374312923885e+02  -1.669173694866e+02 
8 1  6.066579180227e+01   1.956450288481e+02   2.848463208239e+01 
8
Step 1000
1 1  8.442156838419e+01   1.189834329936e+02  -3.236831638307e+02 
2 1 -2.224176412646e+02  -1.861554109878e+02   3.273305157077e+02 
3 1  3.082850182112e+02  -4.037550089111e+02   2.154343541085e+02 
4 1  4.674342903973e+01  -5.908025525689e+02  -2.914609251671e+02 
5 1  1.916023807923e+02  -5.709405081201e+02   1.243438414953e+02 
6 1 -1.029492069338e+02   5.768866769523e+02   1.411382348202e+02 
7 1  1.357881655316e+02  -1.237444592266e+02  -3.828170785044e+02 
8 1 -5.651989882343e+02   6.266976393334e+02   8.848371256817e+01 
8
Step 2000
1 1 -2.704107158636e+02   2.925360963164e+02  -7.871135177652e+01 
2 1  2.347450169278e+02  -2.221670515099e+02   2.183794242315e+02 
3 1 -1.983751407274e+02  -3.260570282062e+02  -7.180424374500e+01 
4 1  3.172733545227e+02   1.378994837641e+02   2.356446792627e+02 
5 1  8.705466787475e+01   2.483515914245e+01   1.827162816594e+00 
6 1  2.714777033094e+02   4.093982521635e+02  -3.883996054951e+01 
7 1  3.400067337149e+02  -4.389482112526e+01  -2.667659029863e+02 
8 1 -2.707364797277e+02   5.294996023057e+02   2.193713603596e+02 
8
Step 3000
1 1  2.553092114756e+02  -2.906631090803e+02  -2.182390878672e+02 
2 1 -5.280112332700e+01   1.847681492159e+02   1.639756047367e+02 
3 1 -2.180812756615e+02  -7.491413940122e+01  -3.810565524730e+02 
4 1 -6.316512429432e+01  -6.062449415026e+01   5.895266407232e+01 
5 1  2.793987853341e+01  -2.610910694230e+02  -1.570888370039e+02 
6 1 -2.424470580723e+02   3.734484395703e+02   1.341831403349e+02 
7 1  4.197698380262e+02   8.924084105733e+00   6.566106197544e+01 
8 1  3.794083654194e+02   1.174494165961e+02   1.875824727453e+02 
8
Step 4000
1 1 -1.106933185704e+02  -3.042135725358e+02   2.662097578885e+02 
2 1 -5.154131759113e+01  -8.486114601782e+01  -7.897716461977e+01 
3 1 -4.584175682399e+01  -9.225880531852e+01   1.491983154478e+02 
4 1  4.203604925536e+01   1.687444092581e+02   1.592183925429e+02 
5 1  3.590820740176e+02   9.994172127478e+01  -4.505421040294e+02 
6 1  9.973481281762e+01  -1.000513538245e+02   3.058877244740e+01 
7 1  2.319663014575e+02   2.270115013395e+02  -2.538903704697e+02 
8 1 -1.165174110264e+02   2.773298862281e+02  -3.092912551888e+01 
8
Step 5000
1 1  1.861516179051e+02   3.172261140866e+01  -6.838748816377e+01 
2 1 -1.120200044829e+02  -4.250558552953e+02   1.733201877750e+02 
3 1 -3.277333664641e+02   2.488279875818e+02  -2.142084034313e+02 
4 1  4.110001098006e+02  -9.157279142248e+02   6.408459495715e+02 
5 1  1.293166105394e+02   3.695714966490e+02  -1.747560255548e+02 
6 1 -5.939975213564e+01  -6.366069053120e+01  -1.070037832980e+02 
7 1 -3.150190731617e+02   2.531848850859e+02  -2.293335198091e+02 
8 1 -3.501870563380e+01  -1.007328983348e+02  -2.777711841018e+02 
8
Step 6000
1 1 -3.626954451681e+02   5.833237152001e+01  -4.092646618172e+01 
2 1 -8.729021049285e+01  -3.419693974150e+02  -2.129234884970e+02 
3 1 -3.170843139488e+01   9.613227601178e+01   5.451074081046e+02 
4 1  2.312165491718e+02  -7.323483926226e+02   4.237881527895e+01 
5 1  3.213297892119e+02   1.037598092960e+02  -3.856315464536e+02 
6 1 -7.169467825653e+01   1.266022453266e+02  -1.912859676805e+02 
7 1 -4.242844339149e+02   4.449196245512e+02  -6.331094952798e+01 
8 1 -1.291309967842e+02   1.228551492669e+02   5.810719890480e+01 
8
Step 7000
1 1 -9.318103867458e+01  -1.604130874443e+02  -1.624785366931e+02 
2 1  1.740298810110e+02   7.195082305707e+01  -2.649484060471e+02 
3 1 -1.590023996630e+02   1.725791058971e+02   1.344928282090e+02 
4 1  4.561388219951e+02  -3.534035608993e+02   3.256142918742e+01 
5 1 -6.192966015130e+02   2.490161912476e+02  -9.795057354905e+01 
6 1  1.355606740276e+02  -2.981133900728e+02   1.895943775297e+01 
7 1  4.176266932053e+01   3.924006398358e+01  -6.224937753293e+01 
8 1  4.386785285887e+01   6.378499659623e+01   7.128282243271e+01 
8
Step 8000
1 1 -3.230924862901e+01  -2.704616490776e+02   2.784148732073e+02 
2 1  2.136890651132e+02  -1.845383492216e+02  -4.265259421042e+01 
3 1 -3.037202876538e+02   7.817061884532e+02  -6.707566767640e+01 
4 1  3.040027890899e+02   1.179801636725e+02   2.321839475447e+02 
5 1  3.982100934968e+01   3.297355962834e+02   4.501490137515e+01 
6 1 -2.416741306277e+01   1.901065852321e+02  -2.667794711497e+02 
7 1  2.130304490496e+02  -2.561397001605e+02  -3.261801864395e+02 
8 1  3.077942764691e+01  -1.760816297600e+02  -1.686271855535e+02 
8
Step 9000
1 1 -8.577757842456e+00  -4.201025892810e+02   2.831053058634e+01 
2 1  4.377403384200e+00   1.586578926227e+02   2.686865835312e+01 
3 1 -4.480986167339e+02  -4.807356134946e+01   1.651046791183e+02 
4 1  1.421569032823e+02   4.093080081586e+02   2.645370315959e+02 
5 1 -1.589311635441e+02  -8.821581840207e+01  -2.048562518015e+02 
6 1 -2.644976107035e+02  -1.226977125341e+02  -3.556677484010e+02 
7 1 -3.122514801767e+02  -6.798045178708e+02  -3.204695928153e+02 
8 1 -5.608998353902e+01  -1.510608916346e+02   1.091831813929e+02 
8
Step 10000
1 1  1.746466553391e+02   1.026186926584e+02  -3.557559407614e+02 
2 1 -2.929665926679e+02  -7.562294191448e+01   6.329764653268e+02 
3 1 -2.827119959682e+01  -3.900674143414e+01  -1.864303684835e+01 
4 1  2.534167673839e+02  -3.905283604431e+02   2.532705004417e+02 
5 1 -1.827140563893e+02   1.155217496080e+01  -4.408227819172e+02 
6 1 -5.906710219249e+02   2.578188996653e+02  -2.036628760126e+02 
7 1 -2.418803358345e+02   1.089261803386e+02  -3.513690840726e+02 
8 1  1.305783146682e+01  -1.559184472051e+02   8.942678724541e+01 
8
Step 11000
1 1 -1.210226944888e+02   1.960387290116e+02   1.720384584699e+02 
2 1  9.995305600602e+01  -5.186840580571e+01  -4.728514845168e+02 
3 1 -7.071402455552e+01   3.214268637648e+02  -1.395866265934e+02 
4 1 -4.428931527173e+02  -2.442330193367e+02   1.870526029663e+02 
5 1  5.444069402805e+02  -4.596096852416e+01   5.223657290656e+01 
6 1 -3.839317662379e+02   1.364284451144e+02   7.634112212285e+00 
7 1 -1.590073045262e+02  -3.199450354554e+02  -1.603679006251e+02 
8 1 -2.812169849647e+02  -1.542364034349e+02   6.398469150655e+01 
8
Step 12000
1 1 -1.258578452008e+02  -2.366841108274e+01  -1.734790085581e+02 
2 1  1.414640782631e+02   6.597808581201e+01   4.870053379276e+02 
3 1  2.266614477121e+02   6.300296025083e+02  -2.225423723781e+02 
4 1 -1.013773773521e+02   1.515044259483e+02   1.914440252559e+01 
5 1 -1.050839495844e+02   4.687395478622e+02  -2.111552025890e+02 
6 1 -1.909507111484e+01   2.468108001337e+01  -2.773805046241e+01 
7 1 -3.313797341646e+02  -3.788458794755e+02  -5.707191902695e+02 
8 1  1.381573545184e+02  -4.442487280461e+02   2.294299635396e+02 
8
Step 13000
1 1  5.956774108129e+01  -1.749978293660e+02   3.566130874476e+02 
2 1 -3.135926183610e+02   2.381113690721e+02  -7.301995816282e+01 
3 1 -5.023162161038e+02   7.214134822919e+02   5.374967874037e+01 
4 1 -1.766885184908e+01   3.643855615132e+01   2.529254925836e+02 
5 1  2.589135586083e+02   4.931258749323e+02  -1.252781767028e+02 
6 1 -1.344772044637e+02  -2.011332873921e+02  -1.797683826610e+02 
7 1  6.648414112623e+01  -4.615782804557e+02  -4.693000218984e+02 
8 1 -1.432476556363e+02  -5.616185548658e+02   2.285969733637e+02 
8
Step 14000
1 1 -1.465174520053e+02   9.413733691935e+01   5.802301179421e+01 
2 1  1.485409752886e+02   2.751319502927e+00   1.366267530259e+02 
3 1 -2.298769577728e+02  -1.024006210530e+02  -2.582989221613e+00 
4 1 -2.824773903204e+01   9.406118057396e+01   8.199093143492e+00 
5 1 -5.982316022550e+02   3.364204821783e+02   5.609579053686e+00 
6 1 -3.410845849542e+02  -8.948515869261e+01  -3.412447941612e+02 
7 1  2.103656244540e+02  -4.318525753271e+02  -3.140870950555e+01 
8 1 -2.182658279963e+02  -9.607968354484e+01  -2.050687371456e+01 
8
Step 15000
1 1 -1.716770469164e+01   4.439864201253e+01   7.619245535807e+01 
2 1 -1.151217098233e+02   3.166896927141e+02   3.184905145662e+01 
3 1 -8.505000307919e+02  -2.939714752805e+01  -5.558242971523e+02 
4 1  1.054126634390e+02  -3.576775533325e+02   1.613396832419e+02 
5 1 -5.694507017778e+01  -2.544807506713e+01   4.589209054936e+01 
6 1  9.371458631920e+01   2.088494132647e+01   1.905792410205e+02 
7 1 -3.656011300927e+02  -1.362015367191e+02  -7.740714957234e+01 
8 1 -2.442668405627e+02  -2.439131676981e+02   2.354552801170e+02 
8
Step 16000
1 1  6.993478389607e+01   2.761384702473e+02  -3.305395121403e+02 
2 1  7.366493659673e+01   1.024362552938e+02   5.289692996838e+01 
3 1 -1.681398273840e+02   3.346877233905e+02   2.611925119383e+02 
4 1  9.599117861457e+01   1.170730095320e+02   2.495370661946e+02 
5 1  6.016175592522e+02   3.857828166209e+02   4.636346894605e+01 
6 1 -3.071463418978e+02   1.908037149429e+02  -2.103886782970e+02 
7 1 -1.171351185700e+02  -1.596816818449e+02  -2.809813307075e+01 
8 1  1.314121912204e+02  -4.208560529055e+02   1.291302352778e+02 
8
Step 17000
1 1 -2.230324350591e+02  -2.199697596670e+02  -6.890476938899e+01 
2 1 -4.994163289192e+02   3.278670022758e+02   1.697875419469e+02 
3 1 -7.624090503921e+01   5.452609733707e+02   3.615622528254e+01 
4 1  1.008052589609e+01   1.035054492997e+02   2.204383072957e+01 
5 1  3.652107560846e+02   1.014521964567e+02  -3.332790798282e+02 
6 1 -1.935417624875e+02  -1.497300547141e+01   1.425077932383e+02 
7 1  1.718215183831e+02  -3.424547788186e+02   2.315895332748e+02 
8 1  1.261244611677e+02  -3.799553075222e+02   2.349796322808e+02 
8
Step 18000
1 1  3.545611379263e+01   1.937545465213e+01   2.542387412378e+02 
2 1 -2.781488630841e+01  -5.983550479278e+02   3.531073872573e+01 
3 1 -1.786516481390e+02   5.931623654791e+02  -1.798990913191e+02 
4 1 -4.921383709573e+02  -1.824404810617e+02   2.920977854458e+02 
5 1 -3.690801741932e+01   4.001136404926e+02  -1.334371565188e+02 
6 1 -4.453446293581e+01   9.964877900335e+00   1.945049018937e+02 
7 1 -1.207683969294e+02  -8.832123722146e+01  -2.862190634552e+02 
8 1  3.168433935230e+02  -1.975227326007e+02   2.185710712386e+02 
8
Step 19000
1 1 -1.821889114715e+02  -7.595743888041e+01   2.366668813829e+02 
2 1 -2.461581721298e+02   1.548126477271e+02   7.756307507888e+01 
3 1 -3.450618709173e+02  -2.273427187519e+02  -3.900701992935e+02 
4 1 -2.792861841239e+02  -6.015496381454e+01   2.309397381360e+02 
5 1  3.252529610211e+02   2.548264325562e+02   6.114365281328e+01 
6 1 -3.820270049276e+02  -7.755994115293e+01   3.995011162082e+02 
7 1  9.065138911588e+01  -2.528876918023e+01   2.178711936635e+01 
8 1 -7.055013309051e+01  -3.658100349687e+02   3.767056030168e+02 
8
Step 20000
1 1  1.162579441762e+02  -9.532997086253e+01  -3.955570060750e+02 
2 1 -1.807280490726e+02   2.518106291673e+02   9.557257659648e+01 
3 1  1.021697591495e+02  -3.574560251467e+02  -6.491646849655e+01 
4 1  6.787992642406e+02  -7.257211033287e+01   2.250992778507e+02 
5 1 -1.226113787756e+02   2.153776666886e+02   1.504704472841e+01 
6 1 -3.978840808763e+02   9.389890975098e+00   2.017047660717e+02 
7 1  3.594788492200e+02  -3.211945767917e+02  -8.287684243436e+01 
8 1 -8.508337776937e+01   3.277175615947e+02   3.847678446161e+02 
8
Step 21000
1 1 -7.082914800281e+02   2.987990226622e+02  -1.052028889382e+02 
2 1  6.302433017181e+01   2.044981696716e+02   6.775863621041e+01 
3 1  1.891710199695e+02  -8.551893499767e+01   1.916768721104e+01 
4 1  5.178716801399e+02  -1.412157981543e+02   2.021185715103e+02 
5 1  1.977452856369e+02   2.527556398223e+02  -1.072374211773e+01 
6 1  1.123483680186e+02   1.495049709115e+02   3.167501214641e+01 
7 1  2.778498283408e+01   7.106095383599e+00   1.680153851629e+02 
8 1  3.086008325080e+02  -2.318350323854e+00   5.474154565509e+02 
8
Step 22000
1 1  3.739238574578e+01  -1.717933789811e+02   6.114076553572e+01 
2 1  1.504483861063e+02   7.961118994762e+00   3.214464830475e+02 
3 1  1.782756478548e+02  -3.366599951664e+00  -3.891484567336e+02 
4 1 -3.042966801619e+02   3.162887104591e+02  -2.395596773403e+02 
5 1  5.337889639654e+02  -2.330387768149e+02   3.791438160926e+02 
6 1 -2.557790921779e+02   2.680928410280e+02   2.557168454008e+02 
7 1  2.702765797071e+02   9.864234910478e+01  -5.551046502054e+01 
8 1  1.946809345326e+02  -9.451859637369e+01   2.396570797546e+02 
8
Step 23000
1 1 -2.367344112076e+02   1.835703188081e+01   1.429850952227e+02 
2 1 -3.619361017956e+02  -2.098473989513e+02  -9.163610943885e+00 
3 1  2.678123451855e+02  -2.536480684396e+01  -1.915924812274e+02 
4 1 -1.919929931800e+02  -1.141719662466e+02  -9.504246532857e+01 
5 1  2.372040172247e+02   7.597817032826e+01   1.636648424842e+02 
6 1 -1.711925134081e+02  -5.107997912405e+01   1.370607990686e+02 
7 1 -1.951887139504e+02  -4.083107231746e+02   2.086239278098e+02 
8 1  1.022764958356e+02  -2.599586091492e+02   4.308660482407e+02 
8
Step 24000
1 1 -3.837910801618e+02   5.206929999414e+01   3.495042814068e+01 
2 1  3.353119841317e+02  -2.211328300954e+02   4.151798894718e+00 
3 1  5.142320033790e+02  -1.500941921246e+02  -1.390887191615e+02 
4 1 -1.866346746023e+02   1.709225662210e+00   3.032981466783e+01 
5 1  1.057841005118e+02   2.353552492750e+02   2.790734800934e+02 
6 1 -9.880570754515e+01  -3.421694438323e+01   3.336855430863e+02 
7 1 -1.104114933287e+01   2.127447916234e+02  -1.244732394994e+02 
8 1  5.688091149400e+02  -1.699157385138e+02   2.344581474016e+02 
8
Step 25000
1 1 -8.034262164914e+01   6.604507296470e+02  -6.810486239049e+01 
2 1 -2.628932933409e+00   5.623989159252e+01   2.744155176609e+01 
3 1  6.397938902809e+02  -3.333907969264e+02  -3.306014450039e+02 
4 1  1.063114777436e+02  -3.486842744124e+02   1.576780568635e+02 
5 1  3.100560018066e+02   6.692908474093e+01   2.869914064536e+02 
6 1  1.309171785009e+02  -2.089616723201e+02   3.813594052732e+02 
7 1  3.374780880224e+02   2.908314159232e+02  -2.496520116095e+01 
8 1  5.018930836034e+01   2.518371185317e+02   3.958214176264e+02 
8
Step 26000
1 1  1.686259430785e+02   2.412735391888e+01   3.236870688540e+02 
2 1  5.410263413225e+02   4.153568353203e+02   2.549206902770e+02 
3 1  6.884761917767e+01  -5.996050651261e+02  -2.887814408442e+02 
4 1  1.053722479015e+02  -2.484863059731e+02  -3.781186803970e+02 
5 1  4.029906637239e+02   3.424534118610e+02   1.234141961143e+02 
6 1  1.195082387652e+02   7.317065570571e+01   2.119334411516e+02 
7 1  1.915027469083e+02   3.941904738551e+02  -6.441134014309e+01 
8 1  2.050670693569e+02  -3.446819964805e+02   2.548134525068e+02 
8
Step 27000
1 1  2.648705880573e+02   1.055536554540e+02   1.438827285255e+02 
2 1 -3.786315903146e+02   4.494060465367e+02   2.049609662394e+02 
3 1  2.170010935403e+02  -1.516277793374e+02   4.314026199406e+01 
4 1  1.175497194829e+02   2.183410208188e+01  -7.053036096691e+01 
5 1  8.075719315606e+01  -3.341668135486e+01   9.770352831009e+01 
6 1 -1.474903860314e+02   1.816182377434e+02   2.173545034530e+02 
7 1  1.585393252149e+02  -1.585822082989e+02   7.251138814642e+00 
8 1 -2.175042094930e+02  -2.168759621182e+02   1.353896912201e+02 
8
Step 28000
1 1  2.707880079442e+02  -3.085804515061e+02  -8.165062446176e+00 
2 1  1.230330810644e+02  -3.236229860729e+02  -2.508540249380e+01 
3 1  3.667556868616e+02   1.778428059764e+02   6.503230682991e+01 
4 1 -5.616758167928e+02   1.444724229332e+02  -2.339451533248e+02 
5 1 -1.061916195635e+02  -1.798209904371e+02  -1.913734648415e+02 
6 1 -1.170379744162e+02   1.309565401236e+01  -2.642156491928e+01 
7 1  1.536237232083e+02  -1.807471734333e+02   5.197794666252e+01 
8 1  1.201135833311e+02  -3.552504330576e+02  -2.023728351389e+00 
8
Step 29000
1 1  2.101024905710e+02   5.513231626492e+02  -5.280670010637e+01 
2 1  2.461005391018e+02   4.748308663925e+01   1.336261598683e+02 
3 1 -1.021292930484e+02  -1.802265440306e+02  -1.170161607091e+02 
4 1 -3.539093393391e+02  -1.064181882019e+02   1.761501098740e+02 
5 1  5.157164659588e+02  -5.787803660077e+02   2.533348246151e+02 
6 1 -1.990264149129e+02   3.699375684151e+02   3.109515989290e+02 
7 1  1.440408807082e+02   2.105305780420e+02  -9.960477380180e+01 
8 1  1.259533994419e+02   4.050184275782e+01  -3.763328905378e+02 
8
Step 30000
1 1  6.476312887551e+02   1.636122458672e+02  -1.097085568437e+02 
2 1 -1.849628207489e+02   1.010520923695e-01   9.096762057549e+01 
3 1  7.272141964739e+02  -2.880398251092e+02   1.201460895011e+02 
4 1  6.602260044503e+01   8.684687120491e+00  -8.425645493931e+01 
5 1  2.743866914151e+02   6.067676711140e+01  -3.193596676156e+02 
6 1  1.972888863330e+02   3.792976418269e+02   4.507226535125e+01 
7 1  3.216534791962e+02  -2.618942879635e+02   1.117633348338e+02 
8 1  2.035031850103e+02   4.949407304769e+02   3.014345107372e+01 
8
Step 31000
1 1 -3.812910110664e+01  -1.688610208607e+02  -2.840968861944e+02 
2 1  3.877003200575e+02   2.837171623565e+02   3.061939432924e+02 
3 1  8.272348241935e+01   2.261097865658e+02  -2.710439661542e+02 
4 1 -1.772626459031e+02  -3.813535490669e+01  -1.014693447025e+02 
5 1  1.973544849944e+02  -3.512673618893e+02  -2.245439103886e+02 
6 1 -4.173340610313e+02  -3.933398890415e+02   2.069188375525e+02 
7 1 -2.912094056559e+01   2.378716917459e+02  -2.910838326620e+02 
8 1  1.496926327233e+02   3.664398078121e+01   9.811734519801e+01 
8
Step 32000
1 1  1.029313701399e+02  -7.166042684724e+02  -2.453041467599e+02 
2 1  1.201515788252e+02   1.436812114663e+02   2.698773968026e+02 
3 1 -6.143010162387e+01  -2.548119591074e+02   1.423957253938e+02 
4 1 -3.359269643852e+02   2.757839593428e+02  -1.511848899820e+02 
5 1  1.309058734194e+02  -1.088853174580e+02  -2.033334362398e+02 
6 1 -1.104777191908e+02  -1.504228463478e+02  -1.011690162566e+02 
7 1  1.420285253025e+02  -1.311993691240e+01  -3.892000089417e+02 
8 1 -3.044176308665e+02  -4.533532933667e+01  -5.848187954722e+01 
8
Step 33000
1 1  2.587664527022e+02  -2.524646178922e+01  -3.307755326042e+02 
2 1 -8.364981692608e+01   6.183598324112e+01  -6.145968432408e+01 
3 1  1.701343084879e+02  -2.899582700496e+01   1.515920673018e+02 
4 1 -2.677960693618e+02  -8.071784807385e+01  -3.419152574773e+02 
5 1 -3.774570561487e+02   1.697415763323e+01   1.575561794089e+02 
6 1  1.930349108436e+01  -3.835779523142e+02   9.283334133215e+00 
7 1  1.290337439930e+02   2.456601089416e+02  -2.855388327769e+02 
8 1  1.269978874542e+02   2.172531874793e+02  -6.766216548382e+01 
8
Step 34000
1 1 -2.960246337438e+02   1.440134732779e+02  -3.073569003430e+02 
2 1  1.905817239247e+02  -6.442313386627e+02  -3.636460514146e+02 
3 1  5.561098936961e+02  -1.809370300774e+02   1.541695810950e+01 
4 1  4.719696931063e+01  -3.740053074207e+02   3.729577991386e+01 
5 1  3.779871411449e+02  -2.274478975359e+02  -6.284603668597e+01 
6 1 -2.773513514916e+02   2.011312337561e+01  -1.459267465196e+02 
7 1 -4.575107824308e+01   4.714161750741e+02  -4.426298032714e+02 
8 1  1.019870775537e+02   5.173200722383e+01  -8.517181542216e+01 
8
Step 35000
1 1 -2.367731348780e+02   1.842265811110e+02   6.985698765062e+01 
2 1  1.273639878660e+02  -2.340394804320e+02  -1.233950790483e+02 
3 1  3.937102631253e+02   1.246631084561e+02   5.521847297462e+01 
4 1 -7.728505753232e+01   4.756261009651e+02  -3.704552024229e+02 
5 1 -1.428139550460e+01  -2.772227737502e+02   1.263731686387e+02 
6 1 -2.410990163090e+02  -3.733026261226e+01  -3.046148788339e+02 
7 1  2.127856667764e+02   9.802799495811e+01  -2.666747619661e+02 
8 1  3.315237222238e+02   4.772520220868e+02   2.235904124138e+01 
8
Step 36000
1 1 -3.712230323355e+01  -8.450541818437e+02  -2.364661048995e+02 
2 1 -1.899189040308e+02   1.921476260880e+02  -1.611513556250e+02 
3 1 -9.266412171705e+00  -3.132794935357e+02  -1.911176998002e+02 
4 1  1.111002565380e+01  -5.654146645676e+02   2.010119168289e+01 
5 1  1.294732761443e+02  -4.204110581620e+02  -6.418284621652e+01 
6 1 -1.238088827769e+02  -3.253344121406e+01  -1.953204277229e+02 
7 1 -2.966661704640e+02   2.105557949386e+02  -4.959734317245e+02 
8 1 -9.363392614463e+01   5.244864957304e+02  -2.157503487617e+02 
8
Step 37000
1 1  2.933309045177e+02  -1.920252377112e+02   9.748859828878e+01 
2 1 -6.438244943875e+02   5.249691723505e+01  -3.777355671523e+01 
3 1  5.581199902720e+01  -4.151088295252e+02  -9.643957676358e+01 
4 1 -5.475341722973e+02   1.844471524546e+01  -9.963375130112e+01 
5 1 -3.451341527219e+01  -2.368858258203e+01  -4.341073491805e+02 
6 1 -4.856662373825e+02   2.453534228343e+02  -2.701601409427e+02 
7 1  9.742087825153e+01  -2.538588761365e+02  -4.595194150736e+02 
8 1 -2.262064334241e+02   1.165106924295e+02  -1.570779221266e+02 
8
Step 38000
1 1 -3.565848582967e+02  -3.800609155087e+02  -3.545342636850e+02 
2 1  1.200737983447e+02  -1.438251109606e+02   7.229843162996e+01 
3 1 -3.881164674996e+01  -2.812062815837e+02  -3.117933746634e+02 
4 1  3.705985200843e+01   8.117953660196e+01   1.184466290143e+02 
5 1  2.875191565971e+02  -3.568555475887e+02  -1.549668937864e+01 
6 1 -1.998491052789e+02   3.403180382968e+02   1.085332725808e+02 
7 1  2.139772145508e+02   3.740881953472e+02  -5.337840070638e+02 
8 1 -2.867243848312e+02   2.670953470164e+02   1.250014415812e+02 
8
Step 39000
1 1  2.147505926933e+02   1.979396299665e+02   2.639859310428e+02 
2 1 -1.252807217742e+02  -3.303255043234e+02  -4.797815537458e+02 
3 1  8.493690210527e+01   1.185061852233e+02  -2.927353793513e+02 
4 1 -3.094950942197e+02   1.683477738949e+02  -1.574503212262e+02 
5 1 -6.400209377468e+01  -1.290050672009e+02  -4.894941627605e+02 
6 1 -1.466985546591e+02   1.479152267898e+02   2.138829183630e+02 
7 1  3.163806683314e+02   1.326809439927e+02  -1.361680011811e+01 
8 1  1.661385074138e+02   3.921648967930e+02  -4.362544091482e+02 
8
Step 40000
1 1  3.893160741485e+02  -1.242780658973e+02   5.890203031377e+01 
2 1 -7.755564503640e+02  -5.222196185465e+02  -4.640380950252e+02 
3 1 -1.131939366715e+02  -1.675945935562e+01   5.645191046938e+01 
4 1 -4.484147955645e+02  -4.919671864598e+02  -2.072490332394e+00 
5 1  3.142372651114e+02  -4.231370999429e+02  -7.879796843428e+00 
6 1 -3.084310441693e+02   1.471767148713e+02   2.426577665926e+02 
7 1  3.038995960810e+01   5.389191041715e+02  -5.622141071628e+02 
8 1 -3.261167271896e+02   3.410267953001e+02  -3.712486349825e+02 
8
Step 41000
1 1  2.793382531837e+02  -1.845775943153e+02  -5.675249197637e+01 
2 1  7.627519415053e+01  -5.478863009955e+02   6.958499961236e+01 
3 1 -6.318793346630e+02   4.087258583347e+02   5.078767384923e+01 
4 1 -5.665645253366e+02   2.030731438935e+02  -2.711172470005e+02 
5 1  5.812855910127e+01  -3.937594679904e+02  -2.775438580875e+02 
6 1 -2.780634621504e+02   2.072679852108e+02  -1.719368250477e+01 
7 1 -2.812494302020e+02   2.594685183078e+02  -1.802803262596e+02 
8 1 -3.241238176943e+01   2.160759189757e+02  -1.671127657069e+02 
8
Step 42000
1 1 -2.260347940858e+02  -6.311333330294e+02  -3.482239000725e+02 
2 1 -1.965583800404e+02   8.947365013586e+01   7.291140849282e+01 
3 1 -2.427586799962e+02  -1.684565406699e+02   1.236632196953e+02 
4 1 -2.747372567497e+02   2.537924020537e+02  -4.569897187129e+02 
5 1 -3.910919019520e+01  -1.344315091044e+02   9.467977964423e+01 
6 1 -2.485475667500e+02  -3.051425323089e+02  -4.470213911449e+01 
7 1 -4.135939528251e+02   1.041122893479e+01  -2.387713898839e+01 
8 1  5.505934232400e+01   1.693739041607e+02  -1.706023335637e+02 
8
Step 43000
1 1  3.109098357720e+02  -1.564534305958e+02   1.759598091817e+02 
2 1 -3.551703826579e+02   3.226304845703e+02  -1.819035422817e+02 
3 1  4.205338304970e+01   2.544392571309e+02   1.087684748206e+02 
4 1 -3.667079257015e+02   1.456432888895e+02  -1.572550437925e+02 
5 1  3.052758587134e+02   3.355869293308e+02  -1.263748248330e+02 
6 1  1.148445202816e+02   6.428679962518e+01   1.846896439759e+02 
7 1  1.618073969495e+02   1.579946375899e+02  -3.183170783580e+02 
8 1 -3.127973660922e+01   3.731923677705e+02   1.380852490452e+02 
8
Step 44000
1 1 -2.123960149578e+02   4.436420625232e+02  -2.999076739911e+02 
2 1  2.596820754304e+02  -2.724460930604e+02  -2.452353216641e+02 
3 1 -1.986042044053e+02  -3.178730259754e+02   6.673921264659e+01 
4 1 -2.580443090716e+02   5.746780099806e+02   1.304491685960e+02 
5 1 -2.994628650525e+02  -4.100591220941e+02   2.349098454540e+02 
6 1 -2.400030529690e+02  -2.522038921316e+02  -1.095516321260e+02 
7 1  9.159321360757e+01  -1.921329811100e+01  -1.554690286952e+02 
8 1  1.522926374233e+02   4.453830623685e+02   4.548258331760e+02 
8
Step 45000
1 1 -2.185774400673e+02   1.480009427105e+02   1.502219950115e+02 
2 1  1.704901174396e+02  -4.106097617607e+02  -1.523269954141e+02 
3 1 -2.816514777386e+02   5.187681578727e+01   8.024694754028e+00 
4 1 -5.050527472766e+01   2.193892742223e+02   4.659049604111e+01 
5 1 -1.093341112959e+02  -2.799310207917e+02  -1.419828258560e+02 
6 1 -3.091560660969e+02  -2.108038698350e+02  -6.388325336245e+01 
7 1  8.464385963454e+00   1.664532116349e+02  -5.360652713113e+02 
8 1 -5.890384112026e+02  -1.108197065107e+01   8.991218376767e+01 
8
Step 46000
1 1 -1.278472495456e+02  -7.171371210714e+01   3.327772309243e+02 
2 1 -4.028953034506e+02  -1.902296705315e+01  -2.527008444837e+02 
3 1  1.768454411933e+02   5.225548537862e+02   2.326855351884e+02 
4 1 -2.103060507693e+02   2.391230247387e+02   2.357692182822e+02 
5 1 -1.051403359573e+02  -1.077231949762e+01  -2.778373369679e+02 
6 1 -5.167855991682e+02  -5.099474367793e+02   2.242108128861e+02 
7 1  1.629481040877e+01  -3.763005254011e+02  -9.409513619399e+01 
8 1 -1.335438487351e+02   1.572801088276e+02   3.527709660555e+02 
8
Step 47000
1 1 -3.891356814620e+01   2.650534931478e+02   1.228749494506e+02 
2 1  1.853999392459e+02   1.215826340370e+02  -3.899426616036e+01 
3 1 -2.318896543146e+02   4.445756032771e+02   2.228614875294e+01 
4 1  2.476255725846e+02   3.764428776963e+02   2.613293460545e+02 
5 1  3.384253203726e+02  -4.773554068274e+02   1.473837561219e+01 
6 1 -1.616816362627e+01   8.827916096738e+01  -1.882962181933e+02 
7 1  1.575787757212e+02  -1.116964088186e+02  -2.391649378446e+02 
8 1 -3.404532207911e+01   1.350123376038e+02   4.299092151243e+02 
8
Step 48000
1 1 -5.548475205587e+01   6.124399860342e+02  -2.466320008858e+02 
2 1 -7.087166430026e+01   2.796672475978e+02   2.469292918498e+02 
3 1 -5.704445699794e+01   1.774622274669e+02   3.709136888567e+02 
4 1 -5.704926814462e+01   1.581996208132e+01   3.361331654997e+02 
5 1  2.386737674402e+02   7.882569037419e+01   1.262661327788e+02 
6 1 -3.787111257605e+02   2.462492181736e+01  -2.020837679547e+02 
7 1  1.247327389147e+01  -4.978095580447e+02   1.874088280906e+02 
8 1  2.884416505517e+02  -2.626994611970e+02   4.126639544937e+02 
8
Step 49000
1 1 -3.046906090642e+02   4.498977128705e+02   5.712606395886e+02 
2 1 -2.995291786886e+02   2.828786885075e+01  -5.420738661977e+02 
3 1  7.995828562856e+02  -1.349973206153e+02   3.089332469236e+02 
4 1 -3.569484284771e+01   4.514605431583e+01   4.761544439982e+02 
5 1  2.715898990997e+02  -5.785015662453e+01  -7.022598179654e+00 
6 1  8.872325716927e+01  -4.505663267495e+01   2.518236306776e+02 
7 1  2.613595520338e+01  -3.504954755486e+02   1.432868563442e+02 
8 1 -2.013834427571e+02   3.926166282923e+02  -8.291113590742e+01 
8
Step 50000
1 1  1.021078940650e+02   2.570236577669e+02   3.695360795013e+02 
2 1  4.230105336853e+00  -1.295174294706e+02   2.500701261944e+02 
3 1 -1.220692339821e+02   3.641351012717e+02  -5.345647129047e+01 
4 1  4.827868162419e+01   1.245756600557e+02  -6.593677648058e+01 
5 1 -1.536325616132e+02  -3.992343756230e+02   8.881462118875e+01 
6 1 -1.419795140615e+02   1.795534557740e+01   3.289370601251e+02 
7 1 -1.833939942734e+02  -5.344827575291e+02   1.220176277287e+02 
8 1 -3.983820582798e+02  -4.929743973925e+02  -1.306704558932e+01 
8
Step 51000
1 1 -3.776464982369e+01   3.711735760042e+02   6.100507529830e+02 
2 1  4.098459029746e+01  -5.716223515803e+01   1.123072220865e+02 
3 1 -1.056721896769e+02   4.045583172044e+02   1.800269699230e+02 
4 1  1.804226680188e+02   9.606568185400e+01   1.651800121244e+02 
5 1  5.701449037110e+02  -1.254233557120e+02   2.871315387326e+02 
6 1  1.609330598400e+02  -1.186911167456e+02  -3.009825471717e+02 
7 1 -7.825858670716e+01   9.999334007844e+01  -1.269015732548e+02 
8 1 -6.073711995924e+01  -3.490639891376e+02   1.471641197345e+02 
8
Step 52000
1 1  4.990317695554e+02   1.105510436494e+02   2.025309258789e+02 
2 1 -1.520653212707e+02   2.541110185986e+02   1.701705231818e+01 
3 1  2.053424848893e+02   5.473515893906e+02   5.213246946159e+02 
4 1  1.884556940295e+02   2.936826044390e+02   3.000723064515e+02 
5 1  2.690414538236e+02  -7.999815068543e+01  -2.537127825799e+02 
6 1  2.302917055428e+02  -1.824558151590e+02   1.138435136077e+03 
7 1  1.322383490384e+02   1.833121454900e+02  -7.256812431364e+01 
8 1  9.372507534838e+01  -3.202916773728e+02   3.002586136031e+02 
8
Step 53000
1 1 -1.077285737835e+02   4.361115772411e+01   9.641864691408e+01 
2 1  1.489690290648e+02   3.084780283018e+01   9.518185660438e+01 
3 1  2.840229178234e+01  -2.031239468398e+02   2.442441033262e+02 
4 1  3.942178822666e+02  -2.663423435229e+02  -1.652549256381e+02 
5 1  4.825302794161e+02   1.321769640098e+02   2.923549115845e+01 
6 1  2.135708153052e+02   1.900402468911e+02   2.639156202524e+02 
7 1 -4.323899098359e+01  -1.321177567806e+02   3.276013510212e+01 
8 1  2.144526272852e+02  -2.789481918783e+02   1.036369789358e+02 
8
Step 54000
1 1 -7.966103861937e+00  -2.408209093700e+02   6.523727732198e+02 
2 1  4.637484946386e+02  -7.848265473258e+01   1.564310819157e+02 
3 1  5.247453884366e+01  -1.383232355283e+02  -8.759767297506e+01 
4 1 -1.586211791620e+02   1.647925254299e+02   7.901323527896e+00 
5 1  1.972045769166e+02   1.665035572899e+02   1.262850372288e+02 