8
Step 0
1 1 -5.020375767986e+02   1.301891537133e+02   2.038560078245e+02 
2 1 -5.002494866606e+01   2.412842636694e+02  -4.019462856652e+02 
3 1 -5.809836629558e+00   1.853346177710e+02  -1.787479853878e+02 
4 1  1.436706449525e+02   4.595951841859e+02   5.962563601088e+02 
5 1 -8.312169418508e+01   5.465653697571e+02   1.323078797216e+02 
6 1 -2.466067116481e+02  -3.849791559861e+02  -2.631787307507e+02 
7 1 -3.559133134563e+02  -2.212304180834e+02   3.850728908916e+02 
8 1 -2.185853128291e+02  -7.530260117558e+02  -4.066248765960e+01 
8
Step 1000
1 1  1.919673535721e+02  -8.557999419896e+01  -1.376322131328e+02 
2 1 -1.534256315176e+02  -1.889485936765e+02   3.210897817497e+02 
3 1  8.652756842032e+01  -1.857956532569e+02   4.263192868083e+02 
4 1 -1.893899229680e+02  -4.595281183887e+00  -2.076468428210e+02 
5 1  1.854883096167e+02   2.448505953386e+02   2.716939970276e+02 
6 1  3.910682869353e+02  -1.284480917912e+01  -1.240808272580e+02 
7 1  1.390174151422e+02  -1.173785831269e+02   9.341487661579e+01 
8 1  6.365709605652e+01  -4.701463514409e+02   3.614673497192e+01 
8
Step 2000
1 1 -2.741711046456e+02   5.896588387727e+01  -1.960775577844e+02 
2 1 -9.713163799998e+01   2.077212945189e+02   7.592637964301e+01 
3 1  3.765625102825e+02  -1.723578438959e+02  -1.380610307982e+02 
4 1  2.405019254876e+02   1.397451640874e+02  -5.053232076950e+00 
5 1  2.352212487306e+02   3.705618206798e+02  -2.240778757581e+02 
6 1 -2.793886464318e+02  -3.315856302238e+02  -7.504691232351e+01 
7 1 -2.275899548000e+02  -2.706895173558e+01   8.404630114300e+01 
8 1 -1.303229691195e+02   2.718481291851e+01   1.353118962518e+02 
8
Step 3000
1 1  2.786104265878e+02  -3.856697234397e+02  -4.089148541265e+01 
2 1 -2.543128341401e+01  -1.942838899195e+02   1.371387791092e+02 
3 1  4.723138752410e+02  -5.948341715632e-01   2.435197602708e+01 
4 1 -4.126073158303e+02   8.311097901213e+01  -4.795549278707e+02 
5 1 -9.726627909080e+01   5.988084308932e+01   2.246311720923e+02 
6 1 -2.482550027105e+01  -5.524093244733e+02   2.392885408053e+02 
7 1  6.319760604149e+01  -2.304886432228e+02   3.659282904393e+02 
8 1  9.816637432662e+01  -4.445717825741e+01  -9.528757760661e+01 
8
Step 4000
1 1  3.911403220701e+01   4.812339766663e+01  -2.790726089494e+02 
2 1 -6.879283620169e+01   5.868689393304e+01  -6.319364194537e+01 
3 1  3.021625418790e+02  -3.994189513408e+02  -4.269268911436e+02 
4 1  7.021284907184e+01   6.113567264643e+01   6.262734660575e+02 
5 1  3.147570950269e+02  -2.942352136954e+02  -2.266042509989e+02 
6 1  1.889915303456e+02   1.050722462119e+02  -1.033960412021e+02 
7 1 -5.640462840931e+01   2.125869378264e+02  -1.291981200317e+02 
8 1 -1.065868830477e+02   2.070856490966e+02   6.585087217358e+00 
8
Step 5000
1 1  9.987941233987e+01  -1.110420702968e+02   1.427463068828e+02 
2 1  1.879241511037e+01  -3.234418549729e+01  -1.250201958852e+02 
3 1  1.990426517588e+02   1.303021489728e+02   9.795236926885e+01 
4 1 -4.609302897266e+02   2.336465940505e+02  -2.633638071467e+02 
5 1  5.676328516992e+01   9.370201571712e+01   2.310602455284e+02 
6 1  3.369157233886e+02  -2.991919653014e+02  -6.423686645378e+01 
7 1  4.962909847593e+00  -1.293588545612e+02   2.340812490689e+02 
8 1 -1.330781239645e+02  -5.477970667094e+02  -2.520201705450e+02 
8
Step 6000
1 1  1.028235103894e+02   5.694760994690e+01  -3.636213234249e+02 
2 1 -1.041208264263e+02  -1.017812213345e+02   1.111556525390e+02 
3 1  5.726164508405e+01  -3.198170015562e+02   1.432487920663e+02 
4 1  1.237741131961e+02  -3.050664930388e+01   8.564546309135e+00 
5 1  7.995328835206e+02  -5.466217751168e+01  -2.739339990547e+02 
6 1  3.169381323751e+02   2.884915584095e+02  -2.114227144126e+02 
7 1 -3.140919713319e+02   2.535200092633e+02  -2.941594479238e+01 
8 1 -2.640848576735e+02  -5.593174803213e+01   1.959584199341e+02 
8
Step 7000
1 1 -2.930883946976e+01  -1.136027058472e+02   7.794872725647e+01 
2 1  6.644025254257e+01   5.482457713433e+00  -1.697887355723e+02 
3 1  2.820357910705e+02   2.464869920322e+02  -2.191240951546e+01 
4 1 -5.276957302278e+01   3.224271398152e+02  -5.055652713347e+02 
5 1 -4.294721620810e+01   3.676214760298e+02   1.236169387010e+02 
6 1 -6.510869828186e+02  -6.370536237082e+02   1.874666535064e+02 
7 1 -3.279439076967e+02  -1.377477412761e+02   5.285809798671e+02 
8 1  2.527416340209e+02  -2.845917427904e+02  -3.357708271238e+02 
8
Step 8000
1 1  2.718408896828e+02  -7.821863667756e+01  -2.798478627880e+02 
2 1 -7.380190369264e+01  -1.695839714762e+02   1.722300874192e+02 
3 1  1.026499855388e+02  -3.197846789512e+02  -3.795681433283e+01 
4 1 -3.183523141446e+01  -2.196070956868e+02   1.449071622126e+02 
5 1  1.163072462346e+02  -2.396711969013e+02  -3.804647054716e+01 
6 1  1.108044886922e+02   2.479170030394e+02   4.775074066549e+01 
7 1  1.153481560755e+02   3.436028954243e+02  -4.709711040596e+01 
8 1  2.690475755578e+02   2.779812830203e+02  -7.197701512578e+01 
8
Step 9000
1 1 -2.306619404523e+02   1.584798481886e+02   2.071582277432e+02 
2 1  2.419662551245e+01   2.641827806450e+02  -1.505242941847e+02 
3 1  5.858260541768e+01   7.621917684954e+01  -3.641669208911e+02 
4 1 -1.668986544011e+02   3.495237745433e+02   3.250699262057e+02 
5 1 -3.076500471964e+02   2.610174656531e+02  -1.859803258392e+02 
6 1  1.991847878362e+01  -9.827721101408e+01   8.547103966990e+01 
7 1  1.064769314280e+01  -6.848762576888e+01   1.025658918526e+00 
8 1 -3.045281269646e+02  -3.108394919145e+02  -2.569794324017e+02 
8
Step 10000
1 1  3.156335095125e+02  -1.455974931672e+02  -1.633619522915e+02 
2 1 -3.681141143725e+01  -2.350807494242e+02   2.813346856695e+02 
3 1 -1.046241289078e+01  -1.804235252104e+02   3.077284926562e+02 
4 1 -2.951031114482e+02   5.869286380588e+01  -3.175362637735e+02 
5 1  6.287613613910e+02  -1.308281281639e+02  -9.550532873637e+01 
6 1  5.433122349376e+02   2.419699521061e+02   1.910464983315e+02 
7 1 -1.153770347544e+02   2.578092329375e+01   7.999278644417e+01 
8 1 -4.086011785922e+02  -1.933771869007e+02   5.381058252790e+01 
8
Step 11000
1 1 -2.069557832346e+02   1.865401318445e+02  -5.142318693832e+01 
2 1 -9.353845001141e+01   1.810271744145e+02  -8.226721266420e+01 
3 1 -2.191346218813e+01   6.622767774385e+01  -2.052497312486e+02 
4 1  8.118371530626e+01   3.498494385785e+02   7.498323070296e+01 
5 1  3.446183991135e+02   1.151961265246e+02  -1.437014578933e+02 
6 1 -5.906972861122e+02  -1.649385025764e+02   2.364128472044e+02 
7 1 -3.364554414452e+02   1.728582852914e+02  -4.019116059237e+01 
8 1  1.212299145331e+02  -4.056850904604e+01  -1.692876557744e+02 
8
Step 12000
1 1  3.168403011892e+02  -2.152333449201e+02  -1.356235873125e+01 
2 1 -1.331334352950e+02  -2.780346150642e+02   1.563449370262e+02 
3 1  4.312754262763e+01   7.086329472623e+01   2.646909767683e+02 
4 1 -3.464646636692e+02  -4.082993212655e+01  -3.809469353015e+02 
5 1 -4.402822962566e+01  -2.031202350849e+02   4.545743793894e+02 
6 1 -1.843762369352e+02  -1.449676926196e+02   1.992128550182e+02 
7 1  1.115379504849e+02   2.347635336704e+02   1.150069382251e+02 
8 1  5.922841112654e+02  -1.075437785027e+02  -2.578963169081e+02 
8
Step 13000
1 1 -1.557697723168e+02   3.026483154115e+02  -1.467722014948e+01 
2 1 -1.519022766815e+02   2.835692670396e+02  -8.106019290153e+01 
3 1 -2.093362894183e+01  -1.892448113983e+02  -3.373583394806e+02 
4 1  2.519263576305e+02  -5.520554453364e+01   6.943681343579e+02 
5 1 -1.647767291488e+02   2.319988315901e+01  -1.365006268901e+02 
6 1 -3.661737682120e+01   4.063323788770e+02  -3.630732114091e+02 
7 1  1.343007722253e+02   3.139736310456e+02  -2.756392592902e+02 
8 1 -2.956449366417e+02  -6.071367663282e+01   5.122191995833e+01 
8
Step 14000
1 1  1.912216321238e+02  -2.044968189449e+02   2.614319284194e+02 
2 1  2.830732893555e+01  -1.449726363020e+02   9.601712919618e+01 
3 1  8.915486198994e+01   4.631367738327e+01   2.655320891454e+02 
4 1 -4.580443712310e+02   1.973709389987e+02  -4.959199818937e+02 
5 1 -1.854333943069e+02   2.799280652711e+02   1.183437263360e+02 
6 1  4.168947207717e+02  -6.956046346376e+01   1.948889146427e+01 
7 1  8.480132474886e+01  -3.943336706096e+02   4.708938300515e+02 
8 1 -2.529848537662e+02  -5.529077114255e+02  -9.614033162350e+01 
8
Step 15000
1 1 -4.959159222787e+01   1.058143065626e+02  -3.477603735714e+02 
2 1 -8.986174947943e+01   3.598748116056e+01   1.030484942304e+02 
3 1 -6.164190008914e+01  -2.090703922204e+02  -4.543239765814e+01 
4 1  1.074080426762e+02   3.656964614466e+01   1.688213561707e+02 
5 1  5.247555061636e+02  -3.087234283213e+01  -2.923619164626e+02 
6 1  9.967869842098e+01   1.049879841565e+02   1.331190110323e+02 
7 1 -3.721200478565e+02   1.276713127038e+02  -1.523389009085e+02 
8 1  9.502942723190e+01   5.162115109723e+02   4.414954664073e+01 
8
Step 16000
1 1 -4.068154559080e+01  -1.047611730470e+02   2.170315108709e+02 
2 1 -3.450264177799e+01  -2.347037907139e+01   6.552543885199e+01 
3 1 -2.068383965614e+00   2.982879901604e+02  -5.799959191561e+01 
4 1 -2.544533198822e+02   4.006363013772e+02  -2.827829844661e+02 
5 1 -2.111224624092e+02  -4.683167308747e+01   2.633623387746e+02 
6 1 -3.844209011225e+02  -4.817122196049e+02   4.797594277584e+02 
7 1 -9.103453952643e+01  -7.414613141528e+01  -9.521853992037e+01 
8 1  3.725873323986e+02  -3.311478038557e+02  -2.485908890638e+02 
8
Step 17000
1 1  1.638946471475e+02   2.799769710784e+01  -1.801510499015e+02 
2 1 -9.072500359971e+01  -1.198602606770e+02   2.063583667172e+02 
3 1 -6.086635701967e+01  -1.947622963503e+02  -9.631213321713e+01 
4 1  1.310901510008e+02  -2.734405910664e+02   2.728954592780e+02 
5 1  2.896671037193e+02  -3.678848901848e+02   6.582485700071e+01 
6 1  1.367664228642e+02   6.083694018714e+02  -4.207747692906e+02 
7 1  2.119939760817e+02   3.622043814520e+02  -3.142008083387e+02 
8 1 -8.514571963232e+01   2.569895789295e+01   3.704189946098e+02 
8
Step 18000
1 1 -1.407831535721e+02   1.263065169713e+02   3.424474620642e+02 
2 1 -3.753166621931e+01   1.191599401286e+02  -1.065414745741e+02 
3 1  4.150671470296e+01   1.772298971282e+02  -2.978552569629e+02 
4 1 -2.444632488258e+01   1.286901891591e+02   1.569583878193e+02 
5 1 -4.049364504892e+02   2.162174306370e+02  -1.163310220335e+01 
6 1 -3.142614259542e+02  -1.725484266815e+00  -1.543033695915e+02 
7 1  2.046070918621e+02  -3.375163344141e+02   9.146676458496e+01 
8 1 -1.259808300432e+02  -3.244382916114e+02  -4.336206317428e+01 
8
Step 19000
1 1  3.200632500758e+02  -1.744875817528e+02  -2.844426754749e+02 
2 1 -5.734353816326e+01  -3.213534909076e+02   1.576548919298e+02 
3 1  2.513446874464e+01  -2.818360512156e+02   3.105573657787e+02 
4 1 -1.682137922580e+02  -2.522781985105e+02  -2.349086308888e+02 
5 1  3.770899720565e+02  -1.550447605398e+01   3.049003698351e+01 
6 1  6.140601037115e+02   6.168605130982e+01  -6.045364078922e+01 
7 1 -2.556396216972e+00  -7.286576270166e+01   1.661751104574e+02 
8 1  3.661875427806e+01   6.005585524461e+02   6.405331270430e+01 
8
Step 20000
1 1 -3.537151382894e+02   1.736026320448e+02   1.104398379918e+02 
2 1 -8.497994595521e+01   3.627314168635e+02  -2.812823089905e+02 
3 1  7.849412651319e+00   2.162800113234e+02  -2.734931892826e+02 
4 1  1.526481365619e+02   4.698356702884e+02   1.898956986410e+02 
5 1 -1.598047314532e+02   1.188430139163e+02  -8.878651519835e+01 
6 1 -4.710671966108e+02  -4.444902766474e+02   2.733733719341e+02 
7 1 -3.895857510182e+02   6.795637138767e+01  -3.292721922402e+02 
8 1  1.481596870705e+02  -1.068540886553e+02  -8.064106085818e+01 
8
Step 21000
1 1  3.130272234665e+02  -2.872718852071e+02  -9.457302046168e+00 
2 1  7.382206378533e+01  -2.868732883839e+02   1.660906297612e+02 
3 1  4.461519191442e+01  -1.367850194769e+02   3.734930726198e+02 
4 1 -2.107917681992e+02  -1.065234380738e+02  -3.366046668736e+02 
5 1  1.708053459861e+01  -3.710983736315e+02   2.781382440990e+02 
6 1  9.438497152530e+01   3.495798411275e+02  -1.003530225838e+02 
7 1  2.642503424078e+02   2.117305501348e+02  -6.196517706447e+01 
8 1  3.512253593363e+02  -4.850337922865e+02   2.704509830723e+02 
8
Step 22000
1 1 -2.713112517621e+02   3.375209867973e+02  -4.086111299601e+01 
2 1 -8.760886875595e+01   3.134007668872e+02  -1.042283607909e+02 
3 1 -4.746611853335e+01   1.912161428794e+01  -4.048038928736e+02 
4 1  3.117116074379e+02  -8.329023022538e+00   4.796614312904e+02 
5 1 -1.560350289470e+02   6.170136916988e+01  -1.766604529051e+02 
6 1 -4.111360075565e+02   3.835648368469e+02  -2.883115463961e+02 
7 1  2.184633176927e+02  -4.600028566997e+01  -2.990360763570e+02 
8 1 -1.719514385932e+02   4.266813732598e+01   1.492018116344e+02 
8
Step 23000
1 1  2.605576327308e+02  -2.516820701102e+02   1.012975775447e+02 
2 1  6.223651117196e+01  -3.282566681678e+02   1.812311637061e+02 
3 1 -4.032627556638e+01  -3.058798028344e+01   1.771951151922e+02 
4 1 -3.177771186382e+02  -4.897930591455e+01  -4.199693219732e+02 
5 1 -1.659067745632e+02   2.264971875884e+02   2.304643246688e+02 
6 1  3.083479894773e+02  -1.382997846911e+02   7.523898308589e+01 
7 1  4.743862776570e+02  -4.909287977425e+02   4.046027266902e+02 
8 1 -9.665824254733e+01  -7.978293681425e+01  -8.176652714164e+01 
8
Step 24000
1 1 -1.318233918769e+02   2.013762219859e+02  -2.505057879964e+02 
2 1 -1.341028190191e+02   1.282226293687e+02  -1.061894627025e+02 
3 1 -1.316534998245e+02  -6.401448594612e+01  -2.817093208620e+02 
4 1  3.000400174649e+02  -7.366502635352e-01   3.284273343247e+02 
5 1  2.421431850770e+02   2.055428062278e+02  -1.338187279005e+02 
6 1  7.882747751750e+01  -1.607400398896e+01  -1.385552806448e+02 
7 1 -4.282264670427e+02   2.746711327724e+02  -2.585789786484e+02 
8 1  4.609387574123e+01   4.009045201052e+02   1.243993314488e+02 
8
Step 25000
1 1  1.005434791437e+02  -2.305539368107e+02   3.380122116882e+02 
2 1  3.048272918267e+01  -8.902076341156e+01  -4.865157746091e+01 
3 1  3.280237179952e+01   1.529246259015e+02   1.724492441022e+02 
4 1 -1.527045368952e+02   2.371430721384e+02  -2.887103856924e+02 
5 1 -2.909951578607e+02  -2.271556052014e+02   2.728008291726e+02 
6 1 -3.839502810137e+02  -1.629492691020e+02   1.559962563313e+02 
7 1  8.330165248414e+01   6.067918273525e+01   3.029043143232e+01 
8 1  4.195777810745e+02  -7.343551701399e+02   1.327758913832e+01 
8
Step 26000
1 1  4.613056234221e+01   1.449304616965e+02  -3.609909284335e+02 
2 1 -7.599098207664e+01   1.330258200072e+01   7.098906802870e+00 
3 1  2.682646955797e+01  -1.686815751827e+02   9.469573744421e+01 
4 1  2.557992891779e+02  -3.281921626570e+02   2.292094019140e+02 
5 1  2.314163928139e+02  -4.154733429939e+02  -3.737954457575e+01 
6 1 -7.703795724027e+01   6.962613508374e+02  -4.252135814299e+02 
7 1  3.615201411330e+02   4.233826870701e+02  -3.591691314761e+02 
8 1 -1.173769454141e+02   3.609478164955e+02   3.348016488399e+02 
8
Step 27000
1 1 -1.564780725524e+02   4.968659727246e+01   2.766133869628e+02 
2 1  1.006689270079e+01   1.052866235450e+02  -4.567390915969e+01 
3 1  3.991881825630e+01   1.485473516112e+02  -9.035354311002e+01 
4 1 -1.258066178892e+02   2.067851598045e+02  -4.381629160538e+00 
5 1 -5.025208051700e+02   1.624247553559e+02  -1.108851293522e+00 
6 1 -3.028272680987e+02  -1.122999905026e+02   1.202230277483e+02 
7 1  3.108271237644e+02  -3.778901823564e+02   1.422552853387e+02 
8 1 -1.441281108287e+02  -4.787971730933e+02  -1.161112044652e+02 
8
Step 28000
1 1  2.812611464970e+02  -1.434933395002e+02  -2.710449511987e+02 
2 1  3.243032967280e+01  -2.675761858177e+02   1.116987121987e+02 
3 1 -3.788688823550e+01  -3.020061177312e+02   1.014786318481e+02 
4 1 -9.126872475706e+01  -3.686124385224e+02  -4.111713465384e+01 
5 1  4.394385192153e+02  -2.471581258634e+00   9.892977701819e+01 
6 1  6.884396446386e+02   1.605309249622e+02  -8.122903273574e+01 
7 1 -3.033304810122e+02   2.372170140219e+02   2.225952268147e+01 
8 1  9.027613583017e+01   5.390688584255e+02   6.827582034666e+01 
8
Step 29000
1 1 -2.470130197946e+02   8.483872386745e+01   3.023858472654e+02 
2 1 -4.964752346348e+01   2.671771085926e+02  -1.806281482073e+02 
3 1 -1.153645199489e+02   2.210366130591e+02  -3.766468570542e+02 
4 1  1.151655606359e+02   3.933888846640e+02   1.861417151211e+02 
5 1 -2.576031501541e+02   1.400280506789e+02   9.987932820852e+01 
6 1 -6.700884999991e+02  -3.893857716652e+02   1.068759994412e+02 
7 1 -3.641530283789e+02   1.387450225494e+02  -1.572312178879e+02 
8 1  3.658555617011e+02  -4.590110501515e+02  -1.169319669411e+02 
8
Step 30000
1 1  3.538842640389e+02  -2.171602666641e+02  -1.509682168308e+02 
2 1  8.492148281461e+01  -3.378968151914e+02   2.320744224650e+02 
3 1 -6.482815909636e+01  -2.012760570225e+02   3.949950335085e+02 
4 1  2.685842862000e+00  -2.844938363024e+02  -3.118148939847e+02 
5 1  2.239950268098e+02  -4.679502625204e+02   2.640057447103e+02 
6 1  6.873496980058e+01   2.107458493055e+02  -2.066883845137e+02 
7 1  2.359730974786e+02   4.719964992470e+02  -6.172078720498e+01 
8 1  3.568236948598e+02  -3.836233688392e+00   2.676408772068e+02 
8
Step 31000
1 1 -3.088833341936e+02   3.595282947644e+02  -1.473862991766e+01 
2 1 -1.201030315985e+02   3.672361766499e+02  -1.506001014245e+02 
3 1 -2.408122189019e+01   2.127930117896e+02  -2.611708170785e+02 
4 1  3.346671989622e+02   5.709497187817e+01   3.527879350996e+02 
5 1 -3.188376301320e+02   1.069643136048e+02  -2.182555698829e+02 
6 1 -3.668847585203e+02   1.226035658531e+02  -1.009411817549e+02 
7 1 -1.027733352756e+02  -1.628066817584e+02  -8.439947067170e+01 
8 1 -2.719547450479e+02   2.743538337710e+01  -1.079696708260e+02 
8
Step 32000
1 1  3.385525229039e+02  -3.417272225518e+02   5.562038893915e+01 
2 1  1.376340031864e+02  -3.704791356900e+02   1.717030303655e+02 
3 1  7.617764115961e+01  -1.760907760787e+02   3.160635279922e+02 
4 1 -3.758520877578e+02  -2.980855493640e+02  -3.668060737136e+02 
5 1 -3.387760849509e+01   5.178970278438e+01   1.260616928812e+02 
6 1  7.194711414824e+02   2.986277851132e+01   2.440422026448e+02 
7 1  6.052185352251e+01  -2.968978288284e+02   3.838910195426e+02 
8 1  3.337160449126e+01   2.091831329439e+01  -1.296051609261e+02 
8
Step 33000
1 1 -2.029818615210e+02   2.368479953500e+02  -1.160633957421e+02 
2 1 -1.533827410805e+02   2.845168962306e+02  -1.843040743481e+02 
3 1 -4.861827042128e+01   1.170760561959e+02  -3.788630209519e+02 
4 1  1.522472435081e+02   1.300745499220e+01   3.142340943485e+02 
5 1  1.333919139327e+02   2.639071561194e+02  -5.680322967942e+01 
6 1 -4.103448928394e+01  -5.489434296960e+01  -1.628050467293e+01 
7 1 -6.750442907900e+02   1.445618879157e+02  -3.118014473719e+02 
8 1  1.826603736555e+02   3.616731051584e+02  -6.891972024942e+01 
8
Step 34000
1 1  1.791291060088e+02  -2.884798744218e+02   3.478476338316e+02 
2 1  1.209212025070e+02  -1.474909995339e+02   7.216229399250e+01 
3 1  2.504150414837e+01  -1.014730133084e+01   1.804308449885e+02 
4 1 -1.922393183215e+02   1.080603486633e+02  -2.559862757614e+02 
5 1 -7.847981733147e+01  -1.741215954568e+02   2.353866416529e+02 
6 1 -2.272992009454e+02  -5.253441475389e+02   1.678832648421e+02 
7 1 -6.495823402668e+01   1.181413498269e+02   1.622921722867e+02 
8 1  4.964091264870e+02  -4.845648260513e+02  -3.556006467024e+01 
8
Step 35000
1 1 -1.061904813658e+02   3.059924380229e+02  -3.487115368334e+02 
2 1 -1.004464941826e+02   1.642336432021e+02  -6.771497769376e+01 
3 1 -6.408252020100e+01  -1.650997938481e+01  -6.649427651235e+01 
4 1  4.134345293045e+02  -1.995527492504e+02   2.772513545655e+02 
5 1  3.250071631921e+02  -2.747355343147e+02  -3.634080927049e+01 
6 1 -2.352911211887e+02   3.327223851735e+02  -4.065159121337e+02 
7 1 -3.284637897254e+01   4.981119447629e+02  -2.161751531455e+02 
8 1 -1.654941050161e+02   3.825468317894e+02   9.561035611922e+01 
8
Step 36000
1 1 -6.028183444792e+01  -3.372533875223e+01   2.783376972546e+02 
2 1  4.375520195101e+01   1.031661998938e+01   7.114579107698e+01 
3 1 -1.263293485805e+01   1.043600966538e+02   5.640438248882e+01 
4 1 -9.089495257164e+01   1.504339973360e+02  -1.175879343815e+02 
5 1 -4.577853870254e+02   1.160421495322e+02  -4.746221826811e+01 
6 1  5.793317617848e+01  -1.801392158650e+02   2.891620329801e+02 
7 1 -7.313188304115e+00  -6.006176166750e+02   3.787332741916e+02 
8 1 -2.841276235299e+01  -4.149324975541e+02  -3.205629176148e+02 
8
Step 37000
1 1  1.899816538995e+02  -3.723465605344e+01  -2.725986264531e+02 
2 1 -1.031684419782e+01  -1.235622700876e+02   2.946060696938e+01 
3 1 -7.343319448685e+01  -8.701895586707e+01   1.190293329637e+01 
4 1 -9.738437698134e+00  -3.348970337861e+02  -7.390856260373e+01 
5 1  3.379061830427e+02   7.214900639126e+01   5.738197510344e+01 
6 1  6.485595643030e+02   2.606228638915e+02  -1.167066604208e+01 
7 1 -3.865690604844e+02  -4.016729071885e+01  -1.275672555986e+02 
8 1  7.928285311040e+01   8.052738011457e+02  -1.533884237666e+01 
8
Step 38000
1 1 -1.549139464021e+02  -6.397024743480e+00   3.696635087733e+02 
2 1 -7.377405040927e+01   2.390223763673e+02  -1.165175981087e+02 
3 1 -6.927122363274e+01   2.930354087225e+02  -2.546083225636e+02 
4 1 -8.021031676970e+01   2.008715038398e+02   4.769520467186e+01 
5 1 -2.879076719397e+02   2.855905498867e+02   1.086600236968e+02 
6 1 -5.315105146913e+02  -8.106647961364e+02   2.715128334275e+02 
7 1 -5.257247045728e+02  -1.033856307009e+02  -1.206836012935e+02 
8 1  5.988167106406e+02  -2.317467842166e+02  -1.216494297948e+02 
8
Step 39000
1 1  1.744559695503e+02  -1.052329977375e+02  -1.988891992951e+02 
2 1  2.731078918119e+01  -2.135567223689e+02   2.364617925288e+01 
3 1  8.277517964067e+00  -1.503350965617e+02   1.829791185066e+02 
4 1 -4.124011481879e+01  -2.434515827020e+02  -2.180393169456e+02 
5 1  3.341278150473e+02  -2.693347413460e+02   1.969059148554e+02 
6 1  4.351278517241e+01  -6.503757359708e+01  -1.763148116123e+02 
7 1  1.860178553420e+02   6.685982723032e+02  -1.601272825110e+02 
8 1  3.117917781798e+02   1.478960942654e+02   4.033935106484e+02 
8
Step 40000
1 1 -2.770965821822e+02   2.784078510556e+02   5.389217264931e+01 
2 1 -1.251261335935e+02   3.091148914336e+02  -1.400629853416e+02 
3 1 -3.405575259246e+01   2.019153966658e+02  -2.011629490831e+02 
4 1  2.565031643002e+02   2.955872059668e+02   1.420044296133e+02 
5 1 -3.134359243325e+02   1.233728504268e+02  -1.235209311218e+02 
6 1 -5.899540404593e+02   7.371882850876e+01  -1.087181604383e+02 
7 1  1.673170038908e+02  -2.139423957997e+02   4.458999712955e+01 
8 1 -3.305495060709e+02  -3.515647965452e+02  -1.600769422268e+01 
8
Step 41000
1 1  3.756266314283e+02  -3.226426849158e+02  -6.178916912842e+01 
2 1  1.890069463933e+02  -4.197665844159e+02   1.760588547812e+02 
3 1  4.994672080676e+01  -3.472548011368e+02   3.981688127357e+02 
4 1 -1.000438489127e+02  -2.120270073044e+02  -3.214340257948e+02 
5 1  9.537696499530e+01  -2.134752342446e+02  -4.459558020694e+01 
6 1  7.047916226214e+02   2.507104795185e+02   1.293186873025e+02 
7 1  2.045987527434e+02  -1.847408276637e+02   1.877756556966e+02 
8 1 -3.317032206394e+01   3.387051163251e+02   1.157714288271e+02 
8
Step 42000
1 1 -2.177077353634e+02   2.153181167046e+02  -7.156516835219e+01 
2 1 -1.496499100554e+02   2.594021214658e+02  -1.476708418021e+02 
3 1 -6.965247821367e+01   2.261735217949e+02  -3.182645671962e+02 
4 1  1.082456875071e+02   6.061932103083e+01   1.800152943769e+02 
5 1 -9.005673773550e+01   2.529611538271e+02  -1.711874440532e+02 
6 1  1.413541857445e+01  -1.734080960979e+02   1.542629895743e+02 
7 1 -4.894623219547e+02  -1.042383092025e+01  -2.949935688283e+02 
8 1  3.332570608716e+01   3.461136444144e+02  -6.501699228156e+00 
8
Step 43000
1 1  2.051795678286e+02  -3.696981610026e+02   1.990335769218e+02 
2 1  1.274754726672e+02  -3.097436025894e+02   1.076460363024e+02 
3 1  4.804926538589e+01  -1.421609902161e+02   1.611444249488e+02 
4 1 -2.451273086260e+02  -6.876212726809e+01  -3.157965078650e+02 
5 1  1.564999225636e+01  -1.227814244246e+02   8.939154591805e+01 
6 1  2.924698878507e+02  -5.791148425394e+02   3.509839887492e+02 
7 1 -6.429260409941e+01   1.944515161414e+02  -4.181340435965e+01 
8 1  4.936190917792e+02  -5.858540494789e+01   3.053917872588e+02 
8
Step 44000
1 1 -1.538837344304e+02   2.532841497065e+02  -2.198818589431e+02 
2 1 -9.000957582122e+01   2.104289485134e+02  -1.387514257693e+02 
3 1  4.331035550184e+01   9.306534682318e+01  -2.349987189881e+02 
4 1  2.864235387770e+02   1.121104257952e+01   1.496534486819e+02 
5 1  2.511396653034e+02   4.896440695983e+01  -1.835202859723e+01 
6 1 -3.068528832370e+02   2.647334637334e+02  -4.009473017307e+02 
7 1 -1.004581756482e+02   3.099576127753e+02  -1.927240988436e+02 
8 1 -2.985092154389e+02   1.488405214589e+02   2.308748492371e+02 
8
Step 45000
1 1  5.740924745356e+01  -2.078643388104e+02   3.095105942338e+02 
2 1  1.429328612881e+02  -1.696037426590e+02   1.285766919452e+02 
3 1  1.471136119793e+02  -1.030196144140e+02   1.436876012875e+02 
4 1 -4.164958982856e+01   1.799964905912e+02  -6.470990319274e+01 
5 1 -3.060430274670e+02  -4.941938436248e+01  -4.055668858951e+01 
6 1 -2.894800305611e+02  -1.974565011032e+02   3.809804635643e+01 
7 1  3.302841273220e+02  -3.367084389659e+02   3.842532027300e+02 
8 1 -2.969176945678e+01  -4.494286084230e+02  -4.474577820084e+01 
8
Step 46000
1 1 -1.839565917940e+01   1.777452198709e+02  -3.838105040296e+02 
2 1 -3.191041567699e+01  -3.408320058669e+01  -6.119667434499e+01 
3 1  1.216326035853e+00  -6.908370029807e+01  -5.858313408774e+01 
4 1  1.482407241613e+02  -2.431433446419e+02   1.446659987556e+02 
5 1  3.125690341485e+02  -1.863758932232e+02  -1.340492347854e+01 
6 1  4.685531746147e+02   5.621630177551e+02  -2.293173362619e+02 
7 1 -2.159327105147e+02  -4.420082294254e+01  -2.877684937532e+02 
8 1 -3.612291256649e+02   1.099354570036e+03   5.458298958780e+01 
8
Step 47000
1 1 -9.801909625694e+01  -8.854850661095e+01   4.313393482067e+02 
2 1 -2.513814226940e+01   3.691995505764e+01   6.165512727533e+01 
3 1 -1.694253804566e+01   1.216838048936e+02  -4.321179921524e+01 
4 1 -2.122188113516e+02   8.829117541423e+01  -5.998658526169e+01 
5 1 -4.143111087930e+02   1.237643982826e+02  -1.295469978123e+02 
6 1  7.109116231952e+01  -4.031653499574e+02   4.690309666359e+02 
7 1 -3.144631670534e+02  -4.524938623898e+02   7.859316546642e+01 
8 1  1.975372794091e+02  -3.813060173668e+02  -1.236705300394e+02 
8
Step 48000
1 1  2.107605426789e+02  -4.476858204053e+01  -2.551428691443e+02 
2 1  5.768923930410e+01  -1.546614094354e+02   2.263934056100e+01 
3 1  4.012929238662e+01  -1.490530372540e+02   8.730946379707e+01 
4 1 -8.236681517420e+01  -3.363978240806e+02  -3.274997179001e+02 
5 1  5.404854555411e+02   2.646651844258e+01   1.054370879648e+02 
6 1  4.448979207112e+02   1.921936405018e+02  -7.048674011383e+01 
7 1 -7.688951991631e+01   4.738339415730e+02  -1.935278371399e+02 
8 1  2.350029388662e+01   3.882965550967e+02   2.745531118538e+02 
8
Step 49000
1 1 -2.096355015366e+02   1.085163360805e+02   2.777935524936e+02 
2 1 -5.559665177650e+01   2.416033614334e+02  -6.003606955399e+01 
3 1  7.046670368236e+01   1.705194005422e+02  -1.937364238905e+02 
4 1  1.167291778205e+02   3.835824918061e+02   1.341381921862e+02 
5 1 -4.363196243025e+02   2.029126367673e+02   5.285515877049e+01 
6 1 -7.679982329983e+02  -2.828988267039e+02   4.537210682843e+01 
7 1  2.001341070010e+02  -3.116488693232e+02   2.255267862237e+02 
8 1 -2.828688806892e+02  -5.558647911026e+02  -3.325712965734e+02 
8
Step 50000
1 1  2.018001980698e+02  -2.121770297182e+02  -1.010099420355e+02 
2 1  1.475739451043e+02  -2.791536364179e+02   2.330758882485e+01 
3 1  9.957885391148e+01  -3.230584129590e+02   2.144196921572e+02 
4 1 -1.775021118257e+01  -1.156022223683e+02  -4.267415212243e+01 
5 1  4.266817883283e+01  -2.966821334120e+02   2.011427561920e+02 
6 1  5.354806426452e+02   1.168554075689e+02  -2.116877693120e+02 
7 1  4.599602010129e+02   8.730559183705e+01   1.548548053092e+02 
8 1 -2.072830552985e+02   4.348192629973e+02   2.550678230297e+01 
8
Step 51000
1 1 -3.331076710807e+02   3.756501465497e+02   2.167268440536e+01 
2 1 -2.103141098421e+02   3.973900820996e+02  -1.231949800398e+02 
3 1 -8.456081692696e+01   2.257363827800e+02  -1.877141142605e+02 
4 1  1.472780444082e+02   2.085061017870e+02   3.151481213617e+02 
5 1 -3.735867920729e+02   4.178467370660e+01  -1.225427374511e+02 
6 1  9.204372939299e+01   1.077406993521e+02  -2.363815511810e+02 
7 1 -1.769631905230e+01  -7.363469354921e+02   1.492275994940e+02 
8 1 -6.820842077544e+02   3.844363869449e+02  -3.300541659948e+02 
8
Step 52000
1 1  2.682385329102e+02  -2.657854198333e+02   1.354339708960e+02 
2 1  2.149745165592e+02  -2.926263396268e+02   1.499818331762e+02 
3 1  9.771117723695e+01  -2.860192246098e+02   3.208922999830e+02 
4 1 -2.950649666643e+02  -1.800034541823e+02  -4.539786640776e+02 
5 1  1.584014932664e+01  -5.670157991952e+01  -3.963634966968e+01 
6 1  5.342897792396e+02  -1.283992968121e+02   2.036826569687e+02 
7 1  1.118322530294e+02  -1.393027421259e+02   2.242975771633e+02 
8 1  3.124360078947e+02   2.901626922664e+01   1.922107007193e+02 
8
Step 53000
1 1 -1.805003207941e+02   3.245299944982e+02  -2.158259781609e+02 
2 1 -1.473038079937e+02   2.945243776398e+02  -1.866382904807e+02 
3 1 -5.266394297293e+01   2.223015465885e+02  -2.953567400372e+02 
4 1  1.184546075476e+02   9.687576600534e+01   8.185283733631e+01 
5 1  1.475567595504e+02   2.097151775268e+02   4.281215059171e+01 
6 1 -4.695710515435e+02   1.697169690158e+02   9.901413565277e+00 
7 1 -2.362213944532e+02   5.226533218352e+01  -3.470277127188e+02 
8 1 -1.631882328234e+02   2.767675445699e+02  -5.707016787497e+01 
8
Step 54000
1 1  1.253996197071e+02  -3.214778364350e+02   2.676016789062e+02 
2 1  1.021395752301e+02  -2.340991274986e+02   7.656963422183e+01 
3 1  9.392578763386e+01  -1.660388488324e+02   8.198263096548e+01 
4 1 -8.396242337606e+01  -2.026292851286e+01  -4.822304721150e+01 
5 1 -1.713541247208e+02   2.519594972197e+01   1.967328471356e+02 