8
Step 0
1 1 -5.146983603824e+02   1.434692463961e+02   2.272585503517e+02 
2 1 -6.268573224989e+01   2.545643563522e+02  -3.785437431381e+02 
3 1 -1.847062021339e+01   1.986147104538e+02  -1.553454428606e+02 
4 1  1.310098613687e+02   4.728752768686e+02   6.196589026359e+02 
5 1 -9.578247776891e+01   5.598454624399e+02   1.557104222487e+02 
6 1 -2.592674952319e+02  -3.716990633033e+02  -2.397761882235e+02 
7 1 -3.685740970401e+02  -2.079503254006e+02   4.084754334187e+02 
8 1 -2.312460964129e+02  -7.397459190730e+02  -1.725994513245e+01 
8
Step 1000
1 1 -1.921180217458e+02  -5.424972165412e+02   2.849016439413e+02 
2 1 -1.885909769834e+02   2.883101403147e+02  -3.579016448223e+01 
3 1  3.193373440487e+02   1.941165431239e+02  -3.624825371354e+01 
4 1 -3.290240988328e+02   3.344705566222e+02  -5.903229602452e+02 
5 1 -1.456992102180e+02   3.613114662579e+02   3.339195933340e+02 
6 1 -3.039658551862e+02  -7.667701203286e+02   1.717638684142e+02 
7 1 -6.629114745381e+01  -2.310384351981e+02   5.474738671754e+02 
8 1  4.859316923066e+02  -4.859943526785e+02  -1.575169534916e+02 
8
Step 2000
1 1 -5.601385508902e+00  -2.445060416206e+02   3.416935183563e+02 
2 1  1.725883625967e+02  -1.901054367879e+02   1.138986643934e+02 
3 1  1.605036250238e+02   1.799946373371e+02   4.311695827335e+02 
4 1 -2.821117793551e+02   2.623636929621e+02  -1.951755150677e+02 
5 1 -4.762858026263e+02   4.640341200883e+02   3.597934017188e+02 
6 1  7.759924405970e+02  -8.345717714540e+02  -2.740742785195e+02 
7 1 -4.916017588454e+02   2.948571886377e+02   2.167981350841e+02 
8 1  2.409916864237e+02  -6.344583928877e+02   2.047511272075e+02 
8
Step 3000
1 1  3.287062904328e+02   2.208676060205e+02   1.352497571240e+02 
2 1  1.033647733807e+00   3.745198622227e+02  -5.434738609076e+01 
3 1  1.025271484088e+02   3.821463201854e+02   1.351462694013e+02 
4 1 -3.050058993815e+02  -2.709879301465e+02  -4.400354443601e+02 
5 1 -3.208415588122e+02   2.955167190869e+01   8.150763180117e+02 
6 1 -1.022113485799e+02  -1.721209268666e+02  -9.479958595154e+01 
7 1 -1.319092566005e+02   3.700606712426e+01   5.205074533900e+02 
8 1  2.498209336618e+02  -1.136405505586e+02   2.252358918582e+01 
8
Step 4000
1 1 -4.064859795762e+02   5.376893672210e+02   6.259246777623e+01 
2 1  5.983713405567e+01   3.153690137684e+02  -1.324803015982e+02 
3 1  2.500497626847e+02  -2.226140073654e+02   4.255120051655e+02 
4 1 -1.308314999215e+02   6.889205848724e+02  -6.305229672043e+02 
5 1 -3.557595825006e+02  -4.149357903564e+02   6.495776481665e+02 
6 1 -6.485255410521e+01  -3.255359020716e+02   3.078840676845e+02 
7 1 -1.669351966688e+02  -1.458332525508e+02   3.757531108643e+02 
8 1 -1.050955137216e+02  -1.618120808941e+01   3.859100896415e+02 
8
Step 5000
1 1  1.576455267438e+02  -1.217494888318e+02   1.844920412818e+02 
2 1 -8.116731913260e+01   4.972926664971e+02   2.257415382963e+02 
3 1  2.724387349085e+02  -4.206195219315e+01  -5.219352121364e+02 
4 1 -4.007617814905e+02   6.588318970333e+02  -3.676616077288e+02 
5 1 -2.802770086689e+02  -3.518006330538e+02   1.016699231749e+03 
6 1  1.934811191193e+02   1.908099405175e+02   1.542992358991e+02 
7 1  2.806201849561e+02  -5.810589125720e+02   2.411947817658e+02 
8 1  2.601128685772e+02  -5.346999373153e+02   2.294576716064e+02 
8
Step 6000
1 1  2.881699091637e+02  -5.895445693855e+02   6.040299651414e+01 
2 1 -2.845019332159e+02  -1.114104056279e+01   2.027628143745e+02 
3 1  4.679813203382e+02  -3.986614828884e+02   5.449774260997e+01 
4 1 -1.059748467527e+03   7.822905881408e+02  -7.719576321230e+02 
5 1  3.192225424289e+02  -9.811601705499e+02   4.980226394828e+02 
6 1 -4.050624935989e+01  -5.941812791684e+01   3.819374384171e+02 
7 1  3.642747089945e+02  -7.023044513813e+02   4.096941988768e+02 
8 1  2.235430752070e+02   1.708093485093e+02   5.699337298577e+02 
8
Step 7000
1 1  5.007185710868e+02  -1.576228703930e+02   1.171975542079e+02 
2 1 -9.231626091858e+01   6.421121198365e+02   7.609252864236e+02 
3 1  7.373972361299e+02  -6.156464925451e+02  -3.769866955165e+02 
4 1 -8.931182029155e+02   1.281329694883e+02  -8.274794471726e+02 
5 1  1.441041985646e+02  -4.872796792739e+02   4.351945502579e+02 
6 1  3.728774854483e+02  -1.470064309140e+02   2.606944430465e+02 
7 1  1.229274249760e+02  -2.310585222098e+02   2.654636190785e+02 
8 1  1.273638740539e+02   5.915930684211e+02   5.153497008326e+02 
8
Step 8000
1 1  9.839182225017e+01   8.825169755696e+02   3.764713868260e+02 
2 1 -1.313301773542e+02   6.707066634052e+01   1.737356237006e+02 
3 1  6.481782866925e+02  -4.719475767080e+02  -1.242450528454e+02 
4 1 -1.882717673311e+02   2.058124961593e+02  -2.703088947518e+02 
5 1  4.566115425042e+02  -5.752276374003e+02   6.300429049483e+02 
6 1 -2.080714630933e+02   2.482082149236e+02   2.916978710339e+02 
7 1  1.336358984943e+02   9.121384931659e+01   4.199503313688e+02 
8 1 -5.101192694205e+02   2.345920176532e+02  -1.093559463213e+02 
8
Step 9000
1 1 -3.648755860610e+02   3.825852964693e+02   3.555810321933e+02 
2 1  2.571475468332e+02   6.978904646556e+02  -4.504764893806e+02 
3 1  4.036913624068e+02  -7.643804542836e+02   6.576614912537e+00 
4 1 -2.880607593024e+02   5.003257121368e+01  -9.830905473346e+02 
5 1 -1.300973697622e+02  -6.187268913357e+02   5.851296499592e+02 
6 1  8.880538955654e+02  -7.686890234706e+02   4.126033016598e+02 
7 1 -1.755537142140e+02   2.466690970779e+02   6.034018255240e+02 
8 1 -3.774493531322e+02   1.995883987580e+02   1.400107817210e+02 
8
Step 10000
1 1 -6.917501997020e+00   2.175255868271e+02  -2.170472170296e+02 
2 1 -1.407505448420e+02  -2.717779092412e+02   5.147946641653e+02 
3 1  5.907044468547e+02  -7.114842507257e+02   1.578476267367e+02 
4 1 -1.068035515105e+02  -1.532893800634e+02  -6.883745544281e+02 
5 1 -4.879180908647e+02  -1.851495205768e+02   3.845543918924e+02 
6 1  4.018548673914e+02  -3.910465576376e+02   2.238218105907e+02 
7 1  5.284513056853e+02   3.509404198781e+02   3.198655574096e+02 
8 1  4.638204800841e+02  -9.004989889461e+01   1.438905051658e+02 
8
Step 11000
1 1  1.266659176160e+02   7.125419903438e+01   5.497597143972e+02 
2 1  6.932646014214e+02  -4.139767085150e+01  -6.038891945906e+02 
3 1 -7.738339543911e+01  -4.625224287743e+02   2.379151408389e+02 
4 1  5.472563531067e+01  -3.000446562569e+02  -6.849550890673e+02 
5 1 -2.895737887264e+02  -3.975829414348e+02   4.705566250767e+02 
6 1  6.299259703388e+02  -5.471596659060e+02  -1.630861388931e+02 
7 1  3.914020010386e+02   4.093990398947e+02   9.193137003617e+02 
8 1  2.869179240991e+01   1.472162647754e+02  -4.370769344147e+02 
8
Step 12000
1 1  8.444019052661e+01   2.092916381631e+02  -9.772234784481e+01 
2 1  1.713190428666e+02   2.005788949030e+01   4.530685636858e+02 
3 1  6.544170694829e+02  -1.475890719216e+02   2.600319588292e+02 
4 1 -1.093579939463e+02  -4.912975547465e+02  -9.883987755852e+02 
5 1 -2.799890157233e+02  -2.926545558048e+02   7.794139796568e+02 
6 1  4.377443626435e+02   4.579905034463e+01   1.476313356819e+02 
7 1 -4.942229971487e+02   6.219690373322e+02   7.178194662083e+00 
8 1  1.891095643755e+02   2.016790040322e+02  -2.731760939177e+02 
8
Step 13000
1 1  6.456716205569e+01   5.610463057076e+02   6.451657582821e+02 
2 1  5.854986135458e+02   9.469183596751e+01  -8.403926395534e+02 
3 1 -3.183676731744e+02   6.868536465058e+01   2.974389685788e+02 
4 1  1.717903945753e+02  -1.622723956948e+02  -3.248009160518e+02 
5 1  4.335774280723e+02  -4.578763052263e+02   7.435161972769e+02 
6 1  6.355003705594e-03  -2.648471534254e+02  -6.432377117459e+01 
7 1  1.268182494442e+02   1.738898765404e+02   1.721486193114e+02 
8 1 -2.640111599241e+02   5.198858642211e+02  -8.735519541596e+02 
8
Step 14000
1 1  4.380026735572e+02  -5.168269953495e+02  -6.606994570371e+02 
2 1 -2.957994133261e+02   5.276228442431e+02  -1.084703423461e+02 
3 1  2.845563342492e+02  -7.818080422579e+02   2.856528138256e+02 
4 1 -3.502989581249e+02  -4.692552808495e+01  -5.569393847898e+02 
5 1 -2.849891615733e+02  -4.975112609155e+02   8.504765565946e+02 
6 1  2.371933565164e+02   1.457758170091e+02   1.245364596812e+01 
7 1  3.862694947229e+02  -7.829251562234e+01   3.318735922935e+02 
8 1  3.535758807941e+02   3.701097568802e+02  -6.180068911676e+02 
8
Step 15000
1 1  5.492979143553e+02  -2.149314752346e+02   1.669412025280e+02 
2 1 -7.222908069052e+01  -4.686060089350e+02  -5.408369684810e+02 
3 1 -3.871896834668e+01  -6.968799133725e+02  -1.411078753065e+02 
4 1 -2.725445619704e+02   1.080125244323e+02  -5.131230864575e+02 
5 1  3.252941362291e+02  -5.760445653688e+02   6.034502138858e+02 
6 1  9.216368398804e+01   1.018040649741e+02   2.132507705427e+02 
7 1  8.282849287422e+02  -3.798250178608e+02  -5.913866145302e+02 
8 1 -2.117320681811e+02   6.217172960459e+02  -1.171147873645e+02 
8
Step 16000
1 1  8.990851907325e+02  -3.538165125587e+02   9.755807466830e+01 
2 1  4.482520129623e+02  -3.207294021754e+01   1.124162431631e+01 
3 1  1.978797342948e+02  -4.529562221691e+02   4.218672777997e+02 
4 1 -9.977446734853e+01   7.692123223529e+02  -3.455994158687e+02 
5 1  3.234544787418e+02  -5.500549126923e+02   3.206243049847e+02 
6 1 -1.638633932354e+02   3.355248468979e+02  -2.801732590699e+02 
7 1  1.733137213666e+02   3.800474409171e+02  -9.356768315198e+01 
8 1 -4.962163388463e+02   5.277908395442e+02  -9.421413979442e+02 
8
Step 17000
1 1  3.589347585497e+02   4.905406193869e+02   1.807151046741e+02 
2 1  5.546809445725e+01   1.895181047428e+01  -6.547175029869e+02 
3 1  3.267259495860e+02  -6.051226505548e+02   2.097444985850e+02 
4 1 -9.401471672473e+01   4.287677074369e+02  -2.184405978350e+02 
5 1  3.259279003858e+02  -4.311523407710e+02   2.651259361278e+02 
6 1 -4.806484653996e+02   2.862658901457e+02  -1.604713804348e+02 
7 1 -2.193138592382e+02  -1.528594012214e+02  -4.366693191282e+02 
8 1 -5.000442802088e+02   4.850768302340e+02  -4.817476818857e+02 
8
Step 18000
1 1  3.948398230794e+01   2.276208086905e+02   1.624672358167e+02 
2 1  1.855944028828e+02  -3.446275608777e+02  -7.147041799991e+02 
3 1  2.529588288488e+01  -4.425015913567e+01   3.801676285116e+02 
4 1 -7.385231569844e+01  -1.091491903684e+02  -3.320463489861e+02 
5 1  3.400354244498e+02  -4.438123038201e+02  -1.397167076832e+02 
6 1 -8.944879899953e+01   3.081860299065e+02  -3.408356971862e+02 
7 1 -3.437161492821e+01   7.979149137233e+02   1.472093075992e+02 
8 1 -2.126495711849e+02   6.907786347652e+01  -5.122863751744e+02 
8
Step 19000
1 1  2.798219340656e+02  -4.689189080342e+02  -2.815598650523e+02 
2 1  8.400241055756e+01  -1.111789391348e+02  -5.571603257172e+02 
3 1 -6.248177057600e+02  -1.895095717066e+02   1.618087682058e+02 
4 1  3.559638677403e+02  -2.535439481647e+02   1.059936247706e+00 
5 1 -5.726302122302e+01  -7.265234041799e+01   1.472005061069e+02 
6 1  5.536796844249e+02  -2.926183766095e+02  -2.161566002287e+02 
7 1 -4.446872576233e+02   8.985891076270e+02  -1.721872809926e+01 
8 1  3.300592012816e+02  -3.718139347031e+02  -7.340422309748e+02 
8
Step 20000
1 1 -1.852027033471e+02   7.976154861061e+01   2.457830694770e+02 
2 1  7.407532633102e+02  -1.093027068237e+03  -6.786623046290e+02 
3 1 -3.590476055305e+02   1.977366392480e+02   3.528428705143e+02 
4 1  6.940462698566e+02  -2.066704227883e+02  -3.069215450541e+02 
5 1 -2.095433544892e+00   3.206352723727e+02  -3.598056728903e+02 
6 1  2.198153096317e+02  -3.899823797159e+02  -3.110274642507e+02 
7 1 -3.079315715872e+02   3.551843768789e+02   3.186864814159e+02 
8 1 -5.885016398393e+02   7.035682585003e+02  -7.452268833309e+02 
8
Step 21000
1 1  2.049552658698e+02   4.282568721889e+02   8.343892612484e+01 
2 1  6.847236825253e+01   2.964538514498e+00   1.581609548247e+02 
3 1 -3.165061903655e+02  -1.054733917915e+02   2.498934605570e+02 
4 1  3.843351883918e+02   2.939385493661e+00  -1.383404579716e+02 
5 1 -1.621782180484e+01   3.686353541870e+02   1.580880777313e+02 
6 1  2.985243005863e+02  -2.651217611299e+02  -4.235564470150e+02 
7 1 -6.505825008246e+02   8.992205313634e+02   4.396061856424e+01 
8 1 -5.061632441867e+02  -3.581713688070e+01  -1.416042785586e+03 
8
Step 22000
1 1 -3.880719325203e+02   4.329066329868e+02  -7.444245437267e+01 
2 1  5.173243924955e+02  -1.614959946871e+02  -7.177118616141e+02 
3 1 -6.818039569166e+02   3.078986993881e+02   2.920849648164e+02 
4 1  4.606748478410e+02  -8.098979696425e+01   7.794899898258e+01 
5 1  1.932872008108e+02  -3.073728213269e+01  -1.673335707451e+02 
6 1  8.033946583851e+01   9.615190852079e+01  -1.436882868685e+02 
7 1 -5.728736963485e+02   1.977063991053e+02  -2.440744345364e+02 
8 1 -4.225629435912e+02   7.596200492056e+02  -3.285492844997e+02 
8
Step 23000
1 1 -1.353846477539e+02   7.625883366372e+01  -4.859462362784e+02 
2 1 -7.877596337049e+02  -3.099034874537e+02  -4.099753266971e+02 
3 1 -2.782440825616e+02  -3.644906998994e+02   2.996661216298e+02 
4 1 -2.515761822141e+02  -2.226360723553e+02  -3.241787033046e+02 
5 1  2.115794196801e+02  -4.144391897875e+02  -3.208483635805e+02 
6 1 -1.012430692552e+02   2.540280111559e+02  -3.643246077499e+02 
7 1  3.304748438902e+02   9.879979410186e+01   7.939850717403e+02 
8 1 -1.897678712785e+02   2.498789995139e+02  -3.539674045480e+02 
8
Step 24000
1 1  2.441934850190e+02  -4.301049986338e+02   9.520225661801e+01 
2 1  1.681605668815e+02  -6.224110384254e+02  -2.367287257934e+02 
3 1 -5.580685643920e+02   2.301038747772e+02   6.228593412271e+01 
4 1  9.147233766708e+01   6.293937769760e+02   4.754019564947e+02 
5 1  3.746895755752e+02  -8.794255391928e+01  -2.728582404157e+02 
6 1 -3.543827095413e+02   4.817251070279e+02  -6.705542990896e+02 
7 1  2.825930166256e+02  -1.205558469667e+02  -3.811368503708e+01 
8 1 -1.649223857962e+02   3.323374843637e+02  -2.816542082887e+02 
8
Step 25000
1 1 -1.320346731414e+02   1.271742633874e+02  -1.332809154351e+02 
2 1  1.900977172808e-01  -2.685310043749e+02   2.486580378763e+01 
3 1 -8.730366367332e+00   3.290711548023e+02   3.825858308499e+02 
4 1 -6.420261781272e+02   2.147650206761e+02   1.458368686303e+02 
5 1 -2.818363817293e+02  -2.307489032618e+02  -3.253339845866e+02 
6 1 -3.282185751651e+02   5.565462985457e+02  -8.587218292322e+01 
7 1 -8.771755871487e+01  -2.505792562601e+02  -2.814335456550e+02 
8 1  1.513653506081e+02   2.908327698930e+02  -1.658987626234e+02 
8
Step 26000
1 1 -1.548979222664e+02   4.616560254997e+02   5.206078218353e+02 
2 1 -3.024880265563e+02   2.565967937750e+02  -2.300891099875e+02 
3 1 -6.009356552186e+02  -1.375834053610e+02  -1.515641931773e+02 
4 1 -1.354777869474e+02   8.228780526495e+02   3.743936064076e+02 
5 1  2.360310517825e+02   3.525800784712e+02  -9.651569695430e+01 
6 1 -1.646407201690e+02  -7.081453881678e+01  -4.754394057424e+02 
7 1  2.801886785212e+02   8.900703279019e+01  -2.040407760503e+02 
8 1 -6.634452334694e+02   5.592992680041e+01  -8.004241210992e+01 
8
Step 27000
1 1 -8.818739066742e+02   3.207908449684e+02  -1.136100504337e+02 
2 1 -1.300371227314e+02  -1.380245620434e+02  -4.000852648527e+02 
3 1 -8.304130303763e+02   8.595175733971e+02   3.583249893236e+02 
4 1  4.788093182855e+02  -2.164770316759e+02   4.519027092522e+02 
5 1 -4.856940499718e+02   1.450978356912e+02  -5.239307594961e+02 
6 1 -7.852724993169e-01  -5.370994059905e+02   2.596103904501e+02 
7 1  1.355010129646e+02  -8.951625244302e+01   2.160224536323e+02 
8 1  2.800906009011e+02   1.952625311138e+02  -4.394685004523e+01 
8
Step 28000
1 1 -2.641750035746e+02  -1.940148372874e+02   8.166831999312e+01 
2 1 -2.339866840597e+02  -1.760689519339e+02  -4.079292409947e+02 
3 1 -7.925537274216e+02   3.697538990036e+01  -7.654148250067e+01 
4 1  3.579338389272e+02   2.934588657334e+02   2.294228108330e+02 
5 1 -1.619643701039e+02   6.214802427797e+02  -1.809216894130e+02 
6 1  7.440763933752e+02  -2.470349608963e+02   2.606940754056e+02 
7 1 -1.391584043167e+02  -9.411116715689e+01   3.646267454225e+02 
8 1 -2.820700443430e+02  -7.012973857011e+02  -9.174303106924e+01 
8
Step 29000
1 1 -6.137737228071e+02  -5.673520885721e+02   3.006875390770e+02 
2 1  4.619464700130e+02  -6.922117599344e+01   1.131503549264e+02 
3 1 -7.886759866963e+02   8.942129142382e+02   5.448916315734e+02 
4 1  6.760902952389e+01  -8.604017887976e+01   5.813177575032e+02 
5 1 -3.861616164703e+02   5.955823966115e+02  -4.214880574595e+02 
6 1 -3.360434886429e+02  -2.457510469545e+02  -3.082171047536e+02 
7 1  3.538743536336e+02   3.584956814323e+02   3.468806074965e+02 
8 1  2.849857993343e+02  -7.064841650385e+02  -2.431423738531e+02 
8
Step 30000
1 1 -7.497504356316e+01  -9.863800375954e+01   4.680091656523e+02 
2 1 -2.752074270743e+02  -2.841779944094e+02   9.047312635616e+01 
3 1 -1.683983520407e+02   6.206821719097e+02   1.880292252869e+02 
4 1  1.486550084833e+02   3.345739336481e+02   2.935639561963e+02 
5 1 -1.643907365565e+02   1.086887096922e+03  -8.237347194240e+01 
6 1  4.690104111214e+02  -1.372049248842e+02  -2.565234125533e+02 
7 1 -5.023551412185e+02  -1.750273080349e+02   7.443793775127e+02 
8 1 -2.627720734009e+02   4.303882810829e+02  -4.874034045484e+02 
8
Step 31000
1 1 -7.759047812141e+02   1.426025362873e+01  -8.544300659267e+01 
2 1 -6.569063796107e+02   2.522881864147e+02   5.392482917967e+02 
3 1 -4.315579610632e+02   2.032554715125e+02  -7.073230528370e+01 
4 1  5.156605206281e+02   2.325983563787e+02   2.313915624733e+02 
5 1  1.951407266334e+02   1.240962098354e+02  -3.976712707422e+02 
6 1 -3.361242280425e+02  -1.431059674715e+02  -2.167376291020e+02 
7 1  7.796784711456e+01  -6.593234852938e+02   8.978799217803e+02 
8 1 -3.958910694113e+02   1.965546545016e+02   4.171139326528e+02 
8
Step 32000
1 1  3.992276110915e+01  -3.667840161062e+02   1.826359831868e+02 
2 1 -6.248958061093e+02   1.086788574996e+02   4.436952982352e+02 
3 1 -3.257897994029e+01   2.964855863640e+02  -1.724108928287e+02 
4 1  8.127754432791e+01   4.358775707787e+00   2.953856321433e+02 
5 1  5.647147851858e+02  -2.345932667816e+02  -1.737967816258e+02 
6 1  2.020279104697e+02   4.657054648118e+01  -2.868718782859e+02 
7 1 -3.181941816963e+02  -3.536649810093e+02   5.771271397045e+02 
8 1  1.786375237063e+01   5.062050579460e+01   3.551471576446e+02 
8
Step 33000
1 1  1.027793889865e+02  -4.613734524974e+02   7.130944340806e+01 
2 1 -1.432632264380e+01   1.855371983985e+02   4.494723925671e+02 
3 1 -1.845399681692e+02  -2.855673713941e+02  -2.777143546447e+02 
4 1 -2.042757730397e+02   4.320724217321e+02   7.688074189210e+02 
5 1  2.235750752485e+02   3.611875005285e+01  -5.112115410149e+02 
6 1 -1.359967395608e+02   1.483460251672e+02  -2.999753472730e+02 
7 1  4.448045088017e+02  -1.119081897585e+03   1.064592703041e+03 
8 1 -2.462429493363e+02   2.293696202774e+02   4.478672472937e+02 
8
Step 34000
1 1 -4.481020026804e+02  -1.161336915556e+02   3.334391237851e+02 
2 1  3.383462706621e+02  -6.717239821493e+02   8.227014383240e+02 
3 1 -2.004937294680e+02   2.100192464483e+02  -4.577082654836e+02 
4 1 -1.690747944385e+02   1.843139569828e+02   2.779548784468e+02 
5 1  3.314881126681e+02   1.615714056501e+02  -8.286018666214e+02 
6 1 -2.448380923842e+02   3.864833698721e+02   2.589444849202e+00 
7 1  4.385527326413e+02   5.856978867732e+01   4.141943076625e+02 
8 1 -2.138317737971e+02  -6.134594679147e-01   8.440676139316e+02 
8
Step 35000
1 1 -4.914396393636e+01  -4.889964662953e+01   8.097558716123e+02 
2 1 -6.381114795393e+02   5.611997541732e+02   3.831230049186e+02 
3 1  2.651017855702e+02   2.091243364927e+02  -8.199692099871e+01 
4 1 -6.486634981897e+01  -2.772053731297e+01   6.368840924649e+02 
5 1  5.359369291821e+01   2.665174407714e+02  -6.796447039497e+02 
6 1  3.362067009739e+02  -2.354404381420e+02   1.475796906047e+02 
7 1 -2.015375719173e+02   1.842009923328e+02   5.019397197700e+02 
8 1  6.962842100757e+01  -1.662692805524e+02   6.579708841723e+01 
8
Step 36000
1 1 -5.007824414526e+02   8.660194887502e+01   3.081646000655e+02 
2 1  9.739156219786e+01  -9.902846499135e+00   3.954120314416e+02 
3 1  2.574017055769e+02  -6.929972650746e+01  -8.160661013614e+02 
4 1  2.387156399368e+02  -4.283792741812e+02   4.409452047650e+01 
5 1 -2.277139903435e+02  -2.343011683809e+02  -7.573393137955e+02 
6 1 -4.798136188871e+02   2.515790856665e+02  -2.661586775617e+02 
7 1  6.991620050059e+02   2.122195176618e+02   1.136221667570e+03 
8 1  2.240226824840e+02  -8.300876065679e+02   1.123203640590e+03 
8
Step 37000
1 1  6.322506479177e+02  -2.956954532950e+02   4.025393957790e+02 
2 1 -5.172355440509e+02   4.575591861000e+02   2.754777224699e+02 
3 1  4.582266044959e+02  -1.749825290047e+02  -2.285674388017e+02 
4 1  4.402006580730e+00  -5.734016712031e+02   5.257735505650e+02 
5 1 -7.913431719881e+02   2.923949290997e+02  -3.384591346126e+02 
6 1  4.112392877943e+02  -8.963690469287e+02  -1.935664558511e+02 
7 1  7.048956388838e+01   1.293256533687e+02   6.496376260872e+02 
8 1  6.172141114242e+02  -7.589237187806e+02   2.453680261319e+02 
8
Step 38000
1 1  4.589836151993e+02  -2.689416829047e+02   4.361890530544e+02 
2 1  4.857241913493e+02  -2.077488353149e+02   4.782058770511e+02 
3 1  2.982419201408e+02   4.720330765560e+02  -5.174752390043e+02 
4 1  2.585957123505e+02  -6.592051114129e+02   9.901096105446e+00 
5 1 -4.486083439067e+02   2.859473195115e+02  -3.448790876995e+02 
6 1  4.054346962601e+01   1.522669481653e+02  -1.088191276226e+01 
7 1  2.035273669119e+02   1.263249788297e+02   9.388794320026e+02 
8 1  2.852882018006e+02  -3.704297613592e+02  -2.851538846221e+01 
8
Step 39000
1 1  3.668500624197e+02   3.731451407530e+02  -1.452202659667e+02 
2 1 -4.533756213463e+02   4.039354992835e+02   6.930318241417e+02 
3 1  3.032828415327e+02   1.653395782769e+02  -3.812406559656e+02 
4 1  2.545650180139e+02  -6.035531044491e+02   1.375854981127e+02 
5 1 -3.474174240180e+02   2.192174084514e+02   1.149292959563e+02 
6 1 -1.820230229746e+02  -2.351874208428e+02  -5.614776831225e+02 
7 1  4.338479957171e+02   1.229158402420e+02   6.934117569790e+02 
8 1  7.740181584728e+01  -4.120837942001e+02   3.168791068547e+02 
8
Step 40000
1 1  1.840360993659e+02  -3.324680633917e+02   1.559583186621e+02 
2 1 -1.541249511391e+02   8.083825174677e+02   3.099457039558e+02 
3 1  5.579359105024e+02   1.271316301703e+02  -3.305456025591e+02 
4 1  6.096938541124e+01  -5.543265306051e+02   2.758938963184e+02 
5 1 -4.381795838152e+02  -6.543591156361e+02  -8.428135586009e+02 
6 1 -2.395445770081e+02  -1.221653915129e+02   1.775974189193e+02 
7 1  5.704805845175e+02  -5.161858583267e+02   7.312284906005e+02 
8 1  3.412317736542e+02   5.029238675620e+02  -2.565165515372e+02 
8
Step 41000
1 1  5.889851337866e+02   2.561649980485e+02  -7.608512649856e+02 
2 1 -6.860731686403e+01   8.088248277982e+02   5.346198581146e+02 
3 1  7.418854836295e+02  -3.903779991991e+01  -5.437334433133e+02 
4 1  1.424018703272e+02  -5.016847864826e+02   2.640619990666e+02 
5 1  3.479534192405e+02  -8.235788972604e+02   4.419673024941e+02 
6 1 -3.899225856728e+02  -2.280865800882e+02   9.281407466229e+01 
7 1  4.575161428260e+02  -8.028617150733e+02   2.241827880302e+01 
8 1 -3.372351817591e+01  -1.413980821154e+02   9.739217920515e+01 
8
Step 42000
1 1  2.972635499513e+02  -7.307105751455e+02  -1.322833519805e+02 
2 1 -6.782809031567e+01   2.717390226857e+02   7.222906912179e+01 
3 1  1.058371209531e+03  -6.618951068563e+02  -6.067934629334e+02 
4 1 -1.247226138057e+02   7.017808907390e+01   3.663533521950e+02 
5 1  2.197385471627e+02  -2.300686530873e+02  -6.378720447522e+02 
6 1 -3.213819027386e+02  -1.258974066233e+02   1.398099845503e+02 
7 1  4.322974285035e+02  -4.790407545972e+02   2.697568083943e+02 
8 1  3.299915630191e+01   3.480460656569e+01   6.332244766578e+01 
8
Step 43000
1 1  3.295141904389e+02   3.215412699401e+02  -3.330186042365e+02 
2 1  4.758432592447e+02   3.172105491596e+02   2.440426121502e+02 
3 1  3.108276118094e+02   6.260982503385e+01  -6.019658761046e+01 
4 1 -2.445194182622e+02   2.636807430495e+02   7.535258990961e+02 
5 1  3.577048188681e+02   8.500578814853e+01  -4.434240466127e+02 
6 1 -1.367500231664e+02   7.665322705867e+01  -2.923387808073e+02 
7 1  4.053027936649e+02  -5.665069994993e+02  -1.483149979981e+02 
8 1 -3.750067368668e+01  -1.405369471001e+02  -1.673322614957e+02 
8
Step 44000
1 1 -1.177911015336e+02   1.274934673917e+01  -4.345958156411e+02 
2 1  2.488462001315e+02   5.100465399583e+02   1.550429015632e+02 
3 1  8.766880957024e+02  -4.649611165771e+02  -4.753885098289e+02 
4 1 -1.263162272931e+02   5.692978590257e+01  -1.568637825920e+02 
5 1 -4.064322189289e+02   7.858097279015e+02  -1.331201504038e+02 
6 1  1.335942503865e+02  -2.638561936925e+02  -4.962163917113e+02 
7 1  1.373146523604e+02  -6.176249954034e+01   2.734960766546e+02 
8 1 -2.591391857436e+01  -5.784224770534e+02   2.561432906819e+02 
8
Step 45000
1 1  8.809610478789e+01   1.885139220657e+02  -7.180390355756e+02 
2 1  2.559600918653e+02   4.888640729243e+01   4.273248026099e+01 
3 1  2.175135966011e+02   4.622780067303e+02  -6.117837384822e+02 
4 1 -2.228822162831e+02  -8.743237258009e+02   6.757769248199e+02 
5 1  9.312867724421e+01   1.119595215506e+02  -4.753145808653e+02 
6 1  4.944051392879e+02  -9.083382585749e+01  -9.434003661968e+01 
7 1 -9.696768345120e+01  -2.127593577702e+02   9.675219595264e+01 
8 1  5.388957528512e+01  -7.193030854709e+02  -2.071255818532e+02 
8
Step 46000
1 1  8.150835819819e+02  -3.458385523435e+02  -5.754064045256e+02 
2 1 -3.823284409201e+00  -2.001287040884e+02   2.570118104475e+02 
3 1  6.628886548702e+02  -1.289226716495e+02  -7.161622115484e+02 
4 1  7.419584868734e+02  -7.086394324814e+02   8.247430645188e+01 
5 1 -5.621825249732e+02   5.017264851513e+02   5.286288907635e+02 
6 1  8.044434340292e+00  -3.928795795346e+02  -7.201169347956e+02 
7 1 -3.064744466396e+02   2.621278070004e+02   1.419579589592e+02 
8 1  1.484318297843e+02  -2.295235106146e+02  -4.396489156445e+02 
8
Step 47000
1 1  5.226901803166e+02  -4.159426648542e+02  -4.941847932872e+02 
2 1  4.022307702570e+01   1.080079991022e+02  -5.156600835392e+02 
3 1  4.823584523965e+02   4.280286498932e+02  -2.187414099884e+02 
4 1  1.805920150947e+02  -1.783626566457e+02   5.081041650485e+02 
5 1 -1.680452816360e+02   6.869070603549e+02  -2.614420605748e+02 
6 1 -6.633455364700e+01   5.603416051860e+01  -7.859594142529e+02 
7 1 -4.542790190628e+01   2.868611006686e+01   8.593270068616e+01 
8 1 -1.916824550155e+01  -3.712110649922e+02   1.668341103131e+02 
8
Step 48000
1 1  2.786873090023e+02   5.822868988383e+01  -6.944965589484e+02 
2 1 -3.923170730529e+02  -1.784343012167e+01   4.382295162211e+02 
3 1  1.135135789143e+02  -3.979285277235e+01  -8.675389148383e+01 
4 1  1.061246303039e+02   2.051266270119e+02  -2.378543415975e+02 
5 1 -2.611813114132e+02  -1.720113874039e+01   2.665869574069e+02 
6 1 -5.816767338918e+02   9.129147544038e+01  -7.056626429855e+02 
7 1 -2.252710281609e+02  -4.761277670726e+01  -1.270598052739e+02 
8 1  5.553009764406e+02   4.358756093402e+02  -4.895448489819e+02 
8
Step 49000
1 1  7.207089128616e+01  -5.635139952123e+01  -4.021919352184e+02 
2 1  4.214583668779e+01   1.110191135674e+03  -3.782525623452e+02 
3 1  5.008203404315e+02  -4.985541848504e+02  -4.146467745904e+02 
4 1  3.894582094361e+01   1.334044161193e+02   4.800576804448e+01 
5 1 -2.633061384985e+02  -1.177334456199e+02   1.317059277606e+02 
6 1 -9.269462696631e+01   5.652201672267e+02   1.579750393385e+01 
7 1  2.405512309060e+02  -1.473539396182e+02   1.874429221653e+02 
8 1 -3.189172116914e+02  -8.079979872695e+01  -8.276421796376e+02 
8
Step 50000
1 1 -1.575848573932e+02  -3.617989433095e+02  -8.433058919416e+02 
2 1  1.045674840162e+01  -2.304880633037e+02   3.944630340138e+01 
3 1  8.595574742884e+02  -3.814358011379e+02  -4.349675141709e+02 
4 1 -3.208917820344e+02   1.131907122026e+02   1.748187788323e+02 
5 1  2.414287911511e+02  -7.150609907291e+02  -1.188887845616e+02 
6 1 -5.941380932233e+02   2.946775051516e+02   2.644259519314e+02 
7 1  1.398309917268e+01  -1.337629339877e+02  -2.837775775369e+02 
8 1 -4.053151007207e+02   3.558147211686e+02  -4.143016342580e+02 
8
Step 51000
1 1  1.172922258462e+02  -5.490020084233e+02  -5.798369533829e+02 
2 1  2.630076996940e+02   7.419089162811e+02   7.168547648372e+01 
3 1  1.519800076225e+02  -3.455376653607e+02   4.951132089115e+01 
4 1 -3.884562516816e+02   5.694241248968e+02   8.609163878133e+01 
5 1  1.715070698840e+02  -5.200090251443e+02   5.518883375834e+02 
6 1 -2.455205482126e+02  -7.817180837449e-01  -1.590997257924e+02 
7 1 -2.192010273422e+01   8.106800764269e+01  -7.556048544456e+02 
8 1  7.490424779510e+01   6.257342142641e+02  -6.818459848827e+02 
8
Step 52000
1 1 -1.310663165267e+02  -3.185949756353e+02  -6.013958600116e+02 
2 1  8.625506463648e+02   1.771692862860e+02   1.198646316508e+02 
3 1 -7.254549202223e+01  -7.096479454776e+01   1.089381697365e+02 
4 1 -8.646436065100e+02   6.033414054952e+02   4.121633629253e+02 
5 1  1.594257295413e+02   1.243370367829e+02  -1.636098339443e+01 
6 1 -5.086676032017e+02   5.296133875202e+02  -6.157981966763e+01 
7 1 -1.964585063209e+02   1.399094274308e+02  -6.689561678533e+02 
8 1 -2.854196060909e+02   5.021123389279e+02  -2.589862081099e+02 
8
Step 53000
1 1 -2.181219760825e+02  -4.329126691816e+02  -2.798605454121e+02 
2 1 -4.475964345125e+02  -1.311711521761e+02  -1.077837927376e+02 
3 1  6.639115164237e+01   1.084361188507e+02  -1.090500559415e+02 
4 1 -4.386457846275e+02   7.918604619775e+02   1.074320155425e+02 
5 1 -4.526525401299e+02   9.550916374231e+02   3.301383381082e+02 
6 1  1.248662055239e+01  -3.925505531901e+02   3.020204824899e+02 
7 1 -9.108902615750e+01   5.832430117840e+02  -3.821498588756e+02 
8 1 -2.255784619725e+01   4.516756818730e+01  -8.991326210042e+02 
8
Step 54000
1 1 -4.141920808414e+02  -8.710122064444e+01  -1.268301481522e+02 
2 1  4.781272377829e+02   6.557053307696e+01  -1.308127063204e+02 
3 1 -2.362642070392e+02  -2.014228862055e+02   3.661408889335e+02 
4 1 -1.277983799447e+02  -3.271465596277e+02   1.383786431870e+02 
5 1 -3.025997969676e+02   7.388934130345e+02   2.770101270653e+02 