8
Step 0
1 1  6.432999158367e+02  -3.750043051772e+02   1.863687949543e+02 
2 1 -2.201019873105e+02   2.464960749827e+02  -6.376381097987e+02 
3 1 -6.024538913253e+00  -1.827773412917e+02  -4.399180420284e+02 
4 1  1.026746989624e+02  -4.153192840206e+02  -1.393689401268e+01 
5 1 -9.595944750191e+01  -2.674248283274e+01  -4.487471032148e+02 
6 1 -3.988877813901e+02   3.054212219501e+02   4.208222042057e+01 
7 1 -3.199643233897e+02  -6.637035784303e+01  -1.718066721548e+02 
8 1  3.032519195824e+01   2.941914944596e+01  -2.574490654431e+02 
8
Step 1000
1 1 -3.249531043832e+02   1.325585962155e+02   1.049875422629e+02 
2 1  2.513009854246e+02   1.970949212135e+00  -3.376991093148e+02 
3 1  1.508224297566e+02   1.581086204952e+02   1.380501488667e+02 
4 1  1.666453460920e+02  -2.319599229176e+02  -1.883696258780e+02 
5 1 -4.448467995451e+02   2.828649769514e+02  -1.829120726940e+02 
6 1 -3.949504085071e+01  -6.143567753919e+02  -1.256694816423e+02 
7 1 -5.275763568268e+02   5.141198546552e+02  -6.178200591046e+01 
8 1 -4.577954468037e+02   1.524836752526e+02  -3.299836775434e+02 
8
Step 2000
1 1  1.199266617126e+02   1.971249245928e+02  -4.430108783527e+01 
2 1 -7.695531057295e+01   3.083779155391e+02  -2.677168708049e+02 
3 1 -2.388737672090e+00   1.871760705085e+02  -2.229462166232e+02 
4 1  3.324134670001e+01  -2.485473136539e+02  -1.689128694516e+02 
5 1 -4.124860823691e+02   1.380431787979e+02   1.551692555480e+02 
6 1 -3.119656119396e+02   1.162004257299e+01  -2.405295392476e+02 
7 1 -3.283461171709e-01  -5.892750775840e+01   1.900869547332e+02 
8 1 -6.451097562422e+01   3.002794018763e+02  -2.265722930903e+02 
8
Step 3000
1 1 -7.454131344813e+00  -3.385662536126e+01   3.268902102736e+02 
2 1  9.438784931905e+01   3.831128957415e+02  -5.773675245596e+02 
3 1 -3.716737437463e+02   4.686273712912e+02  -1.654534313943e+02 
4 1 -1.235530758314e+02   5.389374063362e+02   2.994948422076e+01 
5 1 -5.572299327683e+02   4.883313081443e+01  -3.885322773959e+02 
6 1  6.880178526954e+01  -5.397950567794e+01   6.028871580035e+00 
7 1 -7.431042789277e+01   2.845298459869e+02   1.994990262069e+02 
8 1  3.923640296295e+02  -9.997080110928e+01  -4.915506961858e+01 
8
Step 4000
1 1  6.714229616710e+01  -1.297534445072e+02  -6.225162797657e+01 
2 1 -1.291421806695e+02   4.487895077872e+02   8.978972068694e+01 
3 1 -4.138407299198e+01   4.261376691430e+02  -2.766791242346e+02 
4 1 -4.536540786761e+02   4.157460804420e+01  -1.418877172825e+02 
5 1 -3.663282721734e+02   2.229663741466e+02  -1.270297590689e+02 
6 1 -2.892349185151e+02  -3.150136484865e+02  -5.100248497075e+01 
7 1  1.467348453471e+02   2.445985723766e+02  -4.523577592592e+00 
8 1  1.122332820551e+02  -1.032012310113e+02  -1.029507440816e+02 
8
Step 5000
1 1  3.910314409017e+01   1.557819484416e+02   3.124011751561e+02 
2 1 -3.540332444014e+02   1.717005057646e+02   2.099618127175e+01 
3 1 -1.396394569084e+02   2.529534542982e+02  -2.190557993620e+02 
4 1 -3.046092389772e+02   1.906358560155e+02   4.728226729838e+02 
5 1  2.987408428393e+02   3.659914166066e+01  -2.876443011713e+02 
6 1 -4.012851448827e+02   4.947735876843e+02  -3.583465957766e+02 
7 1 -3.149555321628e+02  -4.722543104690e+01  -1.015494218921e+02 
8 1 -8.240935798618e+01   3.340564610719e+02  -3.910114666958e+01 
8
Step 6000
1 1 -1.436373895404e+02   3.103340169647e+02  -3.373787838031e+02 
2 1 -2.656126931989e+02   3.630879262113e+02   2.208321057913e+02 
3 1 -6.223918719259e+01  -3.264273838187e+01  -4.783658975496e+02 
4 1 -6.864895702006e+02  -2.127840603250e+02   2.851492485199e+02 
5 1 -3.480830130722e+02   8.087328209046e+01  -3.400884873825e+02 
6 1 -3.719544759636e+02   5.506399392100e+01   2.298188073717e+01 
7 1 -2.462174368745e+02   3.008463964158e+02   1.176887563808e+02 
8 1  6.057107651549e+01   9.173729527244e+01   2.966922318801e+02 
8
Step 7000
1 1 -3.056724380524e+02   1.906418831559e+02   2.783355310978e+01 
2 1 -3.038808233791e+02   4.605119421725e+02   2.015525509623e+02 
3 1  2.455690523274e+02   1.537156617499e+02  -3.262021701197e+02 
4 1 -5.820747051900e+02   1.261427117431e+02   4.929724041741e+01 
5 1  1.492851103844e+02   9.299055642010e+01  -7.065488858820e+01 
6 1 -5.249069154954e+01   5.532264374554e+02  -2.058823699684e+02 
7 1  3.293158446374e+02   1.056606153031e+02   2.005152551654e+02 
8 1 -3.057782742839e+02   6.511417778039e+02   1.673394226088e+02 
8
Step 8000
1 1 -3.868258545147e+01   7.236687721107e+01   1.761984261828e+02 
2 1 -2.363847138893e+02   4.135947366701e+02  -6.820756352178e+01 
3 1 -3.508527179239e+02   3.251753328638e+02  -3.373631993465e+02 
4 1 -4.587745216107e+02   5.737454391232e+02   8.153926051231e+02 
5 1 -1.112827846781e+01   8.088880408419e+01  -1.521498299043e+02 
6 1  2.345248476626e+02   2.050290096649e+02  -2.140396967763e+02 
7 1  2.417560600361e+02  -2.689729965924e+02   1.006531373791e+02 
8 1 -9.261644970224e+01   1.960278995237e+02   5.774194348623e+01 
8
Step 9000
1 1 -3.206349200873e+02  -5.041774950584e+01   3.095463675258e+01 
2 1 -4.367624798339e+02   2.769172735725e+02   5.570267975274e+02 
3 1 -1.796105805879e+02   1.105501565354e+02  -1.182941526979e+02 
4 1 -9.097204191421e+01   2.107413686452e+01   2.816180943329e+02 
5 1 -2.390633403584e+02   3.061030378774e+02  -3.452183160224e+02 
6 1 -1.058669893762e+02   4.375573465133e+01  -2.641558001752e+02 
7 1 -1.088118716198e+00   3.158972984691e+02   1.019261210190e+02 
8 1  1.272251408545e+02   5.818988129858e+01   1.751771236705e+02 
8
Step 10000
1 1 -1.751705445894e+02   1.946899525289e+02   8.782885870519e+01 
2 1 -5.322370174160e+02   3.728914448701e+01   1.339907915872e+01 
3 1 -2.664965575127e+02  -2.333054536389e+02   3.031123355201e+02 
4 1 -1.415701411068e+02  -1.678593601185e+02   5.363566361535e+02 
5 1 -1.899472156306e+01  -1.453758799020e+01  -3.187337213165e+02 
6 1 -2.236376858234e+02   3.242673508984e+02  -2.322477387081e+02 
7 1 -5.353281107957e+01   3.058548971403e+02   4.357617430774e+02 
8 1 -1.138932300659e+02   1.458582320288e+02  -5.518585988555e+01 
8
Step 11000
1 1 -3.777028726425e+02   2.677088696471e+02  -6.853779714904e+01 
2 1 -1.466331781211e+02   1.606101606781e+02   1.476036928607e+02 
3 1  4.656637689300e+01   4.519757389166e+01   7.557339272888e+00 
4 1 -1.934414858917e+02  -4.272842235725e+02   4.253124524954e+02 
5 1 -5.686076552601e+01   3.563189577916e+02  -1.207846863463e+02 
6 1  8.869766765531e+01   2.545917615608e+02   1.159500056555e+02 
7 1 -9.889986332833e+01   8.884643275362e+02   2.563159772222e+02 
8 1  2.818382666328e+02  -2.395597527026e+02  -1.521660395365e+01 
8
Step 12000
1 1 -4.333305045642e+02  -5.299315226117e+01  -4.927490897834e+01 
2 1 -2.940547950156e+02   2.211260912708e+02  -1.134632953224e+01 
3 1 -1.560987657080e+01   2.973225751802e+02   3.201876014654e+02 
4 1 -2.148439703062e+02  -1.521630108185e+02   2.517197520452e+02 
5 1  3.763713323765e+02   2.644170415404e+02   1.283588354901e+01 
6 1  2.228527537886e+02  -2.342752082628e+02  -9.504880266171e+01 
7 1 -2.062078498698e+02   2.811742148640e+02   2.754070663839e+02 
8 1  3.634627658280e+02  -7.049216922771e+01   2.674788210295e+02 
8
Step 13000
1 1 -1.802625025335e+02  -1.512351988623e+02   1.000256382845e+02 
2 1 -3.077448750328e+02   1.763007534408e+02   3.472550906581e+02 
3 1  2.388064044977e+02   9.004710701345e+01   2.967946967071e+02 
4 1 -7.920974011707e+01   2.664963387361e+02   7.027332780354e+02 
5 1 -1.765021568155e+02   2.141731442881e+02  -3.983051992855e+02 
6 1  1.719938061283e+02   2.055917296838e+02  -2.950103683154e+02 
7 1  2.601390217796e+02   2.033663739764e+02   2.421276004266e+02 
8 1  3.381291896331e+02  -2.140770344392e+02   1.751343959750e+01 
8
Step 14000
1 1 -2.780865101108e+02  -2.482918662186e+02   8.602973201619e+01 
2 1 -5.107441068482e+02   5.124688988817e+01   2.299495847340e+02 
3 1  3.090679075711e+01  -3.052125583077e+02   2.737613392054e+01 
4 1 -4.487449368708e+01  -3.869415016946e+02   5.467868925015e+02 
5 1 -1.423256518909e+02  -1.063135047275e+02  -1.122633468108e+02 
6 1  1.535718042330e+02  -1.317168157884e+02   4.018827655723e+01 
7 1  1.775102602878e+02   1.896086002490e+02   2.652559852796e+02 
8 1 -1.297415695486e+02   1.203482637516e+02   9.421039301825e+01 
8
Step 15000
1 1 -1.225624125208e+02   5.790970576979e+01  -1.425165844133e+02 
2 1  9.549347799521e+01  -2.289221341536e+02   3.025003679455e+02 
3 1  3.774267004256e+02  -5.416034434242e+02  -7.211584873397e+01 
4 1 -1.266764973909e+02  -1.734298074763e+02   7.931361535636e+02 
5 1  3.463737851543e+01  -2.185817414072e+02  -2.606470729236e+02 
6 1 -1.659282071007e+02   3.457937224167e+02  -2.370705675407e+02 
7 1  3.768418441241e+01  -1.434251733192e+02   2.072382660065e+02 
8 1  4.961479267822e+01   3.731529957101e+02   8.180371617828e+01 
8
Step 16000
1 1 -1.592497163010e+02  -6.926959310987e+01  -9.608413014914e+01 
2 1 -2.124457341378e+02   3.880276232808e+02   2.303437002396e+02 
3 1  3.196229556721e+02  -1.106828237595e+02   4.442837833693e+01 
4 1  4.086458003391e+02  -1.107381926178e+02   6.592415738753e+02 
5 1  6.115242333748e+02  -2.075016024785e+02  -1.273532464847e+02 
6 1 -2.317592599382e+02   3.902857722526e+02  -9.249402307866e+01 
7 1  1.659966175818e+02  -8.003188701356e+01   2.012285187623e+02 
8 1  1.416259500159e+02  -2.982480490206e+02   9.351465766218e+01 
8
Step 17000
1 1 -1.673203972131e+02  -1.349872844183e+02  -2.726812793410e+02 
2 1  1.558068551065e+02  -2.072224767980e+02   4.348033608297e+02 
3 1  8.954200512351e+02   2.074847568849e+02   4.108963666910e+02 
4 1 -2.212504689401e+02   4.686704904077e+01   1.881072842438e+02 
5 1  2.568009389900e+02  -3.824972234022e+01  -2.849313363009e+02 
6 1 -4.043026410725e+01  -1.883589784247e+02  -3.023432442929e+02 
7 1  3.465934928717e+02  -2.863324712239e+02   1.129568252950e+02 
8 1  2.720399819600e+02   6.288162905830e+01   1.527964442623e+02 
8
Step 18000
1 1 -2.088883638796e+02  -3.073446336238e+02   4.521748393763e+02 
2 1  7.300772403421e+01  -1.519897746101e+02  -2.220983741933e+00 
3 1  1.662679099652e+02   3.760996474932e+01  -4.032253276734e+01 
4 1 -1.871105956390e+02  -1.438446782219e+02   4.660999629049e+02 
5 1  1.574401463303e+02  -1.853853132930e+02  -1.566518612662e+02 
6 1  1.904614802541e+02  -4.423485602824e+00  -1.923323779401e+02 
7 1 -3.770134237377e+01  -7.248694579616e+01   1.036874873427e+02 
8 1  1.233466101686e+02  -5.807727793007e+02  -4.692060363043e+01 
8
Step 19000
1 1  2.514311752985e+02  -4.722263614790e+01   2.072780632722e+00 
2 1  3.189300941120e+02  -2.472155752993e+02   1.056783202103e+02 
3 1  1.950515689852e+02  -2.690208458990e+02   1.489651144259e+02 
4 1 -1.478440605844e+02  -1.492067730262e+02   3.215725659113e+02 
5 1  9.965224690727e+00   1.388959588337e+02   2.878252370877e+02 
6 1  2.130443639730e+02  -5.166143800013e+02  -3.874280047064e+02 
7 1 -1.202727124692e+02   1.119472766613e+02  -1.751540386430e+02 
8 1  2.763375762445e+01  -5.290323657693e+02  -2.130388388626e+01 
8
Step 20000
1 1 -4.859146803757e+01  -3.788547425725e+01  -3.459446110430e+02 
2 1  6.341340004014e+01   1.433448078439e+02   1.154542378437e+02 
3 1  5.142838403666e+02  -5.997923772823e+02   2.350287120078e+02 
4 1  3.164263938774e+02  -1.075538623088e+02   1.266994077204e+02 
5 1 -5.928001442517e+01  -7.217340372480e+01  -2.005325033121e+02 
6 1  4.132727975878e+02  -5.781427303388e+02  -1.807769978088e+02 
7 1 -1.305350739517e+02  -2.009188440336e+02   3.446648836530e+02 
8 1 -5.292571729837e+01  -2.831678317028e+02  -8.366763856471e+01 
8
Step 21000
1 1  3.470522801270e+02  -1.220356563155e+02  -9.012404676104e+01 
2 1  2.782403643734e+02   2.571945106002e+01  -4.662107501113e+01 
3 1  2.582169879762e+02   1.412811202714e+02   3.151792847996e+02 
4 1  4.709853056496e+02  -1.305757055531e+02   2.977550875718e+02 
5 1  4.697139781419e+01   1.301876263733e+02  -1.861139713563e+02 
6 1  5.177655830613e+02  -5.909992170167e+01  -2.797599327881e+02 
7 1  4.745637355949e+01   1.785672348830e+01   3.787402117207e+01 
8 1  1.755861932298e+02  -5.230423368312e+02  -2.653685616897e+02 
8
Step 22000
1 1  1.642862904423e+02  -6.656018538007e+01  -1.233658968876e+02 
2 1 -4.463274384337e+01  -9.208349734024e+01   2.790263969883e+02 
3 1  1.442599381918e+02   1.804156390312e+02   1.621102150605e+02 
4 1 -2.336745195528e+02  -7.246306475089e+01  -9.035865075755e+01 
5 1  4.880758063612e+02  -6.217899214163e+01  -1.820323491030e+02 
6 1  1.781814139351e+02  -1.718153697503e+02  -8.827996846860e+01 
7 1 -1.522831856294e+02  -3.897564090314e+02   8.731021703415e+01 
8 1  6.679489480292e+01  -4.220909757085e+02  -1.381309131220e+02 
8
Step 23000
1 1  8.115542403678e+02  -6.293322296447e+02   1.794090714322e+01 
2 1 -1.378315871699e+02  -1.631299562360e+02  -4.187104819505e+01 
3 1 -9.855529326622e+01   9.884355700798e+01  -9.885778611284e+01 
4 1 -1.543763175135e+02   7.329694704969e+01   4.620467141088e+01 
5 1  2.784347952073e+01  -3.523044762391e+02  -3.385837840600e+02 
6 1 -1.815644156490e+02   7.190263103363e+00   1.419693196713e+02 
7 1  1.147751837418e+02  -5.863126026229e+02  -6.169815698218e+01 
8 1 -1.675377175808e+02  -5.471281546327e+02  -4.658320183396e+02 
8
Step 24000
1 1 -2.941714210460e+01   6.782427698153e+01  -4.194027799862e+02 
2 1 -1.197771253515e+02  -2.205563851318e+02  -1.302469870833e+02 
3 1  1.964167980391e+02   2.910292213232e+02   4.622472088698e+02 
4 1  2.469831446469e+02  -4.883685112719e+02   4.689977661980e+02 
5 1 -3.695876423439e+00   5.490561415370e+01  -4.536241028202e+02 
6 1  9.558673750608e+01  -2.906078494617e+02   4.544201369223e+01 
7 1 -1.260864517548e+02  -5.669060069191e+02  -8.209784962772e+01 
8 1 -8.064609815539e+01  -9.301582944738e+01  -2.658813080551e+02 
8
Step 25000
1 1  4.026417720084e+02  -3.619442979216e+02  -5.939047696741e+02 
2 1  2.384310612147e+02  -2.942263836288e+01   1.263739980009e+02 
3 1  2.194679134305e+02  -2.050697795142e+01  -2.222907482671e+02 
4 1  1.495883388166e+02   1.436448429494e+01   6.640330972386e+01 
5 1  3.413920966552e+02  -2.813511622817e+02  -2.092383663454e+02 
6 1  1.017683069782e+02  -2.850995324823e+01   8.533500839131e+01 
7 1  4.340316405346e+02   3.147428770774e+01  -1.113818281633e+02 
8 1 -2.965031784098e+01  -9.090483124045e+01  -9.715772623893e+01 
8
Step 26000
1 1  8.589083770567e+01   1.106763863791e+02  -1.442029116727e+02 
2 1 -6.641509272112e+01   2.149691443287e+02  -6.805387234487e+01 
3 1 -8.654280640446e+01  -1.731033091035e+02  -1.421574802398e+02 
4 1  7.545576427212e+02  -1.704617888809e+02   2.207406158106e+02 
5 1  1.001913918981e+02  -1.659531997746e+02  -1.651770723179e+02 
6 1  2.207629361208e+02  -5.616934923053e+01   1.173640028769e+00 
7 1  8.604784122466e+00   2.357225130953e+01   1.233996383588e+02 
8 1 -4.391388454692e+02  -2.191384474706e+02  -2.459964393647e+02 
8
Step 27000
1 1 -2.004146986660e+01  -5.865102564633e+02  -3.927336489477e+02 
2 1  4.928129123976e+01   2.887382569167e+01   2.867283493001e+02 
3 1  1.459114958936e+02   1.865823623517e+02  -8.245080553677e+01 
4 1  1.038787294536e+02   1.851409955446e+02  -4.809675016454e+02 
5 1 -1.463193263843e+02   1.892115361942e+02  -1.005885630417e+02 
6 1  1.656544071597e+02  -3.626736059566e+02  -8.563496357547e+01 
7 1 -2.483379602537e+02  -2.399714678988e+02   8.677945593683e+01 
8 1  1.038862680474e+02  -3.328294546089e+02  -1.031359348756e+02 
8
Step 28000
1 1 -2.229961964997e+02  -2.162952090312e+02  -4.292002457389e+02 
2 1 -3.680975712983e+01  -9.831543882288e+01  -2.415291590564e+02 
3 1  8.072578021950e+01   3.196919412271e+02  -1.863650093244e+02 
4 1 -2.355755621031e+02   4.752382625576e-01  -8.551543858286e+01 
5 1 -1.843031658265e+02  -6.172039023433e+02   1.446639443548e+02 
6 1 -1.143223637782e+02  -3.045550164102e+02  -2.035279469751e+01 
7 1 -9.361692363055e+01   1.378227924859e+02   1.706908261931e+02 
8 1 -3.528090162124e+02  -3.868371501259e+02  -3.960770712173e+02 
8
Step 29000
1 1 -3.485935714147e+02  -5.614566167638e+01  -3.058245518502e+02 
2 1  4.261961641400e+02  -3.951151970612e+02  -2.106238915171e+02 
3 1 -1.713157087221e+01  -1.903352684066e+00  -8.616643710429e+01 
4 1  5.384259855350e+01  -6.230441427130e+01  -2.285602759868e+02 
5 1  1.464509739142e+02   1.189244487713e+02   1.246686745315e+02 
6 1  2.149176995216e+02   3.661389187382e+01  -2.886614466229e+01 
7 1 -2.472245144064e+02   1.039504392462e+02   1.072188209719e+02 
8 1  1.566793056224e+02  -2.112974825180e+02  -3.746678072845e+02 
8
Step 30000
1 1 -1.560337530110e+02   4.202349852799e+02  -3.061605465772e+02 
2 1 -1.381149550992e+01   1.649504566915e+02  -1.042880599778e+02 
3 1  3.640225666224e+02  -8.509911156734e+01  -2.313939030447e+02 
4 1  2.311228888996e+02  -1.582791630897e+02  -2.796490397700e+02 
5 1  8.368542012826e+01   4.494129031594e+01   3.873522280747e+02 
6 1  1.550625139148e+02  -3.330470029404e+00   3.466748456552e+02 
7 1 -1.965003026972e+02   3.855173920771e+02  -1.200891000163e+01 
8 1  1.352834825575e+02   3.099345312777e+02  -1.619500788934e+02 
8
Step 31000
1 1 -2.313653883528e+02  -3.496798907404e+02   5.311464247465e+01 
2 1  2.055489560892e+02   9.122223064806e+01  -5.489369626356e+02 
3 1  1.587676171513e+02   2.723883953729e+01  -1.378200279243e+02 
4 1  1.019601629081e+02   6.406428098209e+01  -3.389778624564e+02 
5 1 -2.151881284700e+01  -6.547581718291e+00  -3.303354538788e+02 
6 1 -1.009802769984e+01  -1.268249499980e+02   1.712076742147e+02 
7 1 -3.296185356638e+01   8.559728456628e+01   2.220773543985e+02 
8 1 -4.538781892464e+02  -2.185533757381e+02  -1.140061152638e+02 
8
Step 32000
1 1 -9.214409727699e+01   1.126705342968e+01  -2.217299354660e+01 
2 1 -2.581132176039e+01   4.336080262355e+02   1.890799308736e+02 
3 1 -7.006431609507e+02   6.022778699719e+01  -4.054924930572e+02 
4 1 -9.495027421452e+01   2.445075073719e+01  -3.373392544717e+02 
5 1 -1.613399106415e+02  -1.077213206076e+02   3.304577431821e+02 
6 1  8.556428437367e-01   2.143392480857e+02   4.422858190414e+02 
7 1 -3.136789829244e+02  -1.132376890696e+02  -3.187122682734e+02 
8 1 -5.557086861241e+02  -2.554741337586e+01  -6.833469942585e+01 
8
Step 33000
1 1  3.936296219969e+02  -1.191075293741e+02   1.112671816550e+02 
2 1 -3.622152140505e+02   3.598292731367e+01  -3.730232590538e+02 
3 1 -9.783743464427e+01  -1.112856125184e+02  -6.876407417407e+01 
4 1 -3.368511652512e+01   2.961308064972e+00  -2.459232396668e+02 
5 1 -8.134203298194e+01   2.612563549350e+02  -7.487484770332e+00 
6 1  3.630358226464e+02   1.105677759758e+02   5.109671608263e+02 
7 1 -1.823738269517e+02   1.434184659054e+02   4.006071743865e+01 
8 1 -5.604244461679e+02  -3.551606241935e+01  -3.570389954464e+02 
8
Step 34000
1 1  5.137650775137e+01   6.811220253587e+02   1.992565199988e+02 
2 1  2.559377076157e+02  -1.888356510508e+02  -2.686946899111e+02 
3 1 -3.588695143615e+02   4.823580898519e+02  -1.268893526956e+02 
4 1 -3.969556777469e+01   1.149395074272e+01  -3.264155655064e+02 
5 1 -1.309127671228e+02   9.742349263848e+01   1.839504429216e+02 
6 1 -6.530008097368e+01   3.282452416521e+02   5.176375212449e+02 
7 1  1.556351412025e+02   1.126256507938e+02   1.591524091466e+02 
8 1 -2.478165729565e+02  -5.608760531888e+01  -2.839297092173e+02 
8
Step 35000
1 1  5.720209081840e+01   1.445213395292e+02   1.792509509338e+01 
2 1  2.621659061459e+01  -1.048408774640e+01   3.091462396243e+02 
3 1 -3.356345032729e+02   3.644675340362e+02  -2.315841731321e+02 
4 1  2.614123021359e+02   8.136309765744e+01  -3.340223949128e+02 
5 1  1.597761605813e+02  -8.275647041612e+01   4.454237278651e+02 
6 1  8.776388534569e+01   4.059968212878e+02   5.720658429008e+02 
7 1 -3.358438632627e+02   7.823257988844e+01   1.304041721118e+02 
8 1 -3.804525057868e+01   4.350663563441e+02  -2.523721786065e+02 
8
Step 36000
1 1  6.490322560777e+02   7.403577229186e+01   6.144255824211e+02 
2 1 -1.394755842568e+02   4.090414917891e+02  -2.491993181450e+02 
3 1 -5.390235506303e+02   4.809239022716e+02   7.983848841193e+01 
4 1 -4.834019262372e+02   3.058204601222e+02  -5.874242994211e+02 
5 1 -5.196871436758e+02   7.067056186042e+01   1.489806445709e+02 
6 1  2.413076441001e+02  -3.001464763229e+02   4.113803273356e+02 
7 1 -2.342897198891e+02   2.696241198937e+02   6.034089644772e+02 
8 1 -2.506633427937e+02   2.838120119427e+02  -5.718129783778e+02 
8
Step 37000
1 1  1.039964627889e+02  -1.138062391910e+02  -1.255745961872e+02 
2 1  5.365569140676e+01   2.247439515343e+02   3.677938988214e+02 
3 1 -7.193476729047e+02  -4.647328560249e+01   1.936528160110e+01 
4 1 -1.289673931569e+02  -9.720364040946e+01  -3.485044621762e+02 
5 1  1.775151998339e+01   1.722793377901e+02   3.704371958909e+02 
6 1 -1.810835072736e+02   1.697900995753e+02   3.948454750432e+02 
7 1 -5.555637336625e+02   3.412326085707e+01  -1.219717748550e+02 
8 1 -4.226258002574e+02  -9.402150891941e+01   5.231759969376e+01 
8
Step 38000
1 1 -1.200128341413e+01   5.352597083143e+02   2.856687252377e+02 
2 1  3.028253954534e+02   1.826128939950e+02   2.525891027985e+02 
3 1 -2.766260401701e+01   4.923046854853e+02   1.834488163663e+02 
4 1 -2.813056764499e+02   8.979747123807e+02  -4.610769302237e+02 
5 1 -4.464052556666e+02   2.619233749176e+02   2.342144347033e+02 
6 1  4.574429029425e+02  -1.949555328018e+02   3.656630315192e+02 
7 1 -3.792397614246e+01   6.737875378701e+01   4.589127610329e+02 
8 1 -1.079266116550e+02   2.068364272199e+02   5.427271850003e+01 
8
Step 39000
1 1 -3.408351946102e+02   2.648396698119e+02   1.488198894850e+02 
2 1  6.224722728929e+02   2.157140618076e+02  -2.668345996885e+02 
3 1 -1.021163837176e+01   1.784489214370e+02   3.117580967123e+02 
4 1  8.123018065646e+01   9.213846919453e+01  -1.475222566479e+02 
5 1 -2.700002269805e+02  -9.114292877295e+01   5.434893175591e+02 
6 1  2.655393751432e+02  -1.200831298317e+02   3.868080304680e+02 
7 1  1.101585284094e+01   6.132328366386e+02   1.640561453935e+02 
8 1 -1.486526360864e+02   8.149420913312e+00   1.229069224871e+02 
8
Step 40000
1 1  2.979029904762e+01   4.881341386319e+02   4.720444088161e+02 
2 1  3.680211794692e+00   7.193727022300e+01   1.341721547862e+02 
3 1  3.658761646192e+01   1.668986197869e+02   2.854549771705e+02 
4 1 -2.103436718375e+02   1.596965529234e+02  -2.597967249408e+02 
5 1 -1.091598012132e+02   1.954906631304e+02   1.805271666915e+02 
6 1 -3.707255560057e+01   1.577281960055e+02   2.335164899354e+02 
7 1 -2.486796900837e+00  -2.776939805505e+00  -3.280198523083e+02 
8 1 -1.367195538145e+02   2.932701045019e+02   2.745756227006e+02 
8
Step 41000
1 1 -3.751023392555e+02  -9.612303206553e+01   1.365612886279e+02 
2 1  2.625727028056e+02  -5.015366399798e+01   1.554791750558e+02 
3 1 -1.185500718889e+02   1.053458104472e+02   4.038028216773e+02 
4 1  6.870450242619e+00   5.595212882555e+00   1.112639195106e+02 
5 1 -5.028017558417e+02  -3.300742712165e+02   2.453058564886e+02 
6 1  2.989839667776e+01   1.019395600087e+02   3.251481568292e+01 
7 1 -2.216190014331e+02   7.559733259053e+01   2.755219541055e+02 
8 1 -3.398662434668e+02   2.504561957851e+02  -5.546497053544e+01 
8
Step 42000
1 1 -1.267459517526e+02   3.657594367907e+01   3.328920294122e+02 
2 1  3.803873509595e+02   2.037890914496e+02   5.007414631614e+02 
3 1 -4.008101898537e+02   1.586785188682e+02  -8.076553801260e+01 
4 1  1.285369125098e+02   1.082546107870e+02  -2.756960429049e+02 
5 1 -4.117972824316e+01   1.334294326505e+02   8.960061692157e+01 
6 1 -2.130686102300e+02   3.269327933364e+02   2.724448816582e+02 
7 1 -3.239044060851e+01  -3.083480658607e+02  -4.048602757285e+01 
8 1  1.220426107807e+02   1.398895561609e+02  -3.379185645752e+01 
8
Step 43000
1 1 -1.696195873277e+02   1.885104357568e+02   4.169723426407e+02 
2 1 -1.744177104806e+02   1.439725376141e+02   5.424724269529e+01 
3 1  2.984247983338e+02  -1.814961740053e+02   2.454593542254e+02 
4 1  8.567856517994e+00   1.368197154317e+02   1.670859794321e+02 
5 1 -1.244056884930e+02   2.833435781702e+02   2.797835725069e+02 
6 1  3.713643866846e+02   8.077578017694e+01   3.608334572609e+02 
7 1  2.255322783361e+02  -1.856884027422e+02   2.307041665249e+02 
8 1  9.655235562772e+01   6.246060053460e+02  -4.526573619982e+01 
8
Step 44000
1 1  2.426937341552e+02   3.220915039659e+02   3.410844863332e+02 
2 1  4.015367550439e+02  -2.332469532956e+02  -1.923276702880e+01 
3 1 -3.506578716406e+02   1.082902513665e+02   4.225908133600e+01 
4 1  2.428631391304e+02  -2.482075039243e+02   9.214303442720e+01 
5 1 -7.464882097373e+01   4.836834730004e+01   1.977081354742e+02 
6 1  4.396303276355e+02   7.002743771238e+02   1.878157493279e+02 
7 1  2.534057398018e+02   9.334748905252e+01   1.793089711326e+02 
8 1  1.318315258125e+01   2.428682661433e+02  -2.046886546236e+02 
8
Step 45000
1 1  2.860732638628e+01  -1.305386470354e+01   2.614094243994e+02 
2 1  2.399102502615e+01  -5.974012214231e+02   2.878550203246e+02 
3 1 -3.343574742168e+02  -1.781513568160e+02  -2.296050853238e+00 
4 1 -1.720293044825e+02  -1.411500030678e+02  -8.047582474494e+01 
5 1 -3.165935846570e+02   2.353369459623e+00   2.292642216117e+02 
6 1 -1.937104775564e+02   8.066686115688e+01   2.229926462064e+02 
7 1  3.896855510379e+00  -1.483782948490e+02  -9.687040583876e+01 
8 1  1.020293565004e+02  -1.616584354711e+02  -1.710707305536e+02 
8
Step 46000
1 1  1.556578351405e+02  -6.096519589660e+02   7.290122225914e+02 
2 1 -1.394094435005e+02  -1.430413137500e+01  -1.298384968289e+02 
3 1  1.418787249032e+02   1.938794570115e+02   3.756554564676e+02 
4 1 -1.050970502354e+02  -1.995348791798e+02  -3.616904624987e+02 
5 1  1.331330276898e+02   1.802823285247e+02   2.403683034278e+02 
6 1  5.332092119638e+02   8.136634958503e+01   4.455522880019e+02 
7 1 -2.167296676512e+01   4.676105660311e+02  -2.128343064824e+02 
8 1 -2.259319386029e+02  -4.250338940805e+00  -4.078601816034e+02 
8
Step 47000
1 1  4.320999487296e+02  -2.849551443700e+02  -6.619463134236e+01 
2 1  1.414790178370e+02   1.858049984736e+01   5.155659291201e+02 
3 1 -6.131961154609e+02  -2.683225719372e+01   6.134133405692e+00 
4 1 -1.634003772536e+02  -1.291034652381e+02  -3.952097861965e+02 
5 1  1.334149348885e+02   5.188250255175e+01   3.566960729173e+02 
6 1 -9.691180836611e+01   2.799155779942e+02   1.752414522118e+02 
7 1  2.412470750605e+02  -3.949557312307e+01   1.006303562041e+01 
8 1  7.605412782460e+02  -3.157796252912e+02   2.809180119363e+02 
8
Step 48000
1 1  7.168256740226e+01  -2.164077011906e+02   1.453921097572e+01 
2 1  5.638863260945e+01  -2.336791743241e+02   1.903038816124e+02 
3 1 -5.201150839220e+01  -6.486525735911e+02   1.640262937753e+02 
4 1  5.156105943920e-01   7.932858684472e+01  -7.145270614417e+01 
5 1  3.918214596626e+02   1.839123398903e+02   2.782802329021e+02 
6 1  4.573896678582e+02   1.950150493742e+02  -2.611152870675e+02 
7 1  1.064600395449e+02   2.234995161083e+02  -2.685814161249e+02 
8 1  4.963574619853e+02   1.491573333329e+02  -4.735286224138e+01 
8
Step 49000
1 1  6.574665750334e+01  -5.893937904051e+02   9.763100570117e+01 
2 1  3.273884854231e+02  -2.040382226928e+01  -8.704916055263e+01 
3 1 -2.936397378843e+01  -5.652319986535e+02   3.730837035566e+02 
4 1 -5.428092372655e+02   1.637576708728e+02  -2.798414307920e+02 
5 1 -1.713052882932e+02   4.341394296585e+01   2.470478705868e+02 
6 1  2.147005821992e+02  -1.608081785297e+02   3.438785583527e+02 
7 1  2.613983673961e+02  -2.587266395952e+01  -1.008540629923e+02 
8 1  2.681436174170e+02   1.184020436923e+02   5.561723545621e+01 
8
Step 50000
1 1 -3.157914504303e+01  -5.009283970174e+02   1.466702473564e+02 
2 1  3.345000653180e+02  -7.299668970007e+02   1.418470579222e+01 
3 1 -4.310368368238e+02  -6.137467330378e+02  -4.434603146860e+02 
4 1  3.741612460408e+00   2.955983151519e+01   1.051634007693e+02 
5 1 -1.796768208130e+02  -2.549508072540e+02   4.681283732349e+01 
6 1  6.521834595776e+01   4.891917119485e+01  -5.541760061651e+02 
7 1  1.984177067187e+02  -5.134014179727e+02  -1.338819545218e+02 
8 1  1.484322289717e+02   5.450558966916e+02  -1.198872199134e+02 
8
Step 51000
1 1  1.089644538640e+02  -3.996033299031e+02  -3.359265812675e+01 
2 1  1.813264106357e+02  -2.613677520927e+02   7.357584931192e+01 
3 1 -2.965925465459e+02   5.594584863042e+01   1.903099394414e+02 
4 1 -7.496423349744e+01   1.690522358567e+02   1.282549166991e+02 
5 1 -3.792842021115e+02  -1.886310056188e+02  -8.113386680491e+01 
6 1  5.084648186594e+02  -9.193593456126e+01  -3.601616776742e+02 
7 1  6.526770756761e+01  -2.304664578820e+02  -1.450440273085e+02 
8 1  1.512347841584e+02  -1.512327392800e+01   1.909359042046e+02 
8
Step 52000
1 1 -6.235877940108e+01  -1.203997238375e+01  -4.720557564044e+02 
2 1  2.385839265693e+02  -2.685323642398e+02  -1.853484284251e+02 
3 1 -1.070782368516e+02  -1.282985989339e+02   3.021300211428e+02 
4 1  2.190045035497e+02  -9.457243842507e+01   2.435929300317e+02 
5 1  5.560929499391e+01  -9.627356944439e+01  -2.461073913898e+02 
6 1  7.903060327335e+01   6.715201042734e+00  -3.003384501767e+02 
7 1  6.167015954294e+02  -1.411756277970e+02   4.074179143032e+00 
8 1  7.546020190227e+02   3.521327879759e+02   2.852593280542e+02 
8
Step 53000
1 1 -6.949692755351e+01   1.221483228350e+01  -3.758273671233e+02 
2 1 -3.200789424560e+00  -5.723635607927e+02  -2.651852679407e+02 
3 1  9.118245067397e+01  -6.765654602397e+01   1.814804714471e+02 
4 1  8.054082823399e+01  -2.463482000903e+02   1.458038240548e+02 
5 1 -2.951863171570e+02   1.254061967697e+02  -2.211874673872e+01 
6 1  2.841372742768e+02  -1.993863905378e+02  -2.200511674817e+02 
7 1 -6.584228466921e+00  -4.191794191959e+02  -1.334975242609e+02 
8 1  1.743931604786e+02  -6.129525513134e+01  -8.379292862881e+01 
8
Step 54000
1 1 -2.288002593121e+02   1.355030529250e+02  -1.486153934828e+02 
2 1  1.855038362012e+02  -1.514358018442e+02  -1.228877090552e+02 
3 1 -5.450953968512e+01  -2.800546634724e+02   7.119344044336e+01 
4 1 -1.703339658613e+02  -4.180143270128e+02   1.443848231563e+02 
5 1  4.237622390998e+01   6.181436686213e+01  -3.713949547766e+01 