8
Step 0
1 1  3.023859026055e+02   2.378816802784e+02  -9.555576813497e+01 
2 1  2.697713000661e+02  -2.546322453998e+02  -6.199506671967e+02 
3 1 -6.255592878208e+02  -1.652719680071e+02  -4.327187349958e+02 
4 1  1.094359229731e+02  -2.812415677186e+02   5.182986855887e+02 
5 1  6.418775273896e+01  -4.157455463467e+02  -2.316845659138e+02 
6 1  2.785438408206e+02   2.531813734805e+02   6.452012672630e+01 
7 1  1.707535445606e+02  -1.773918968688e+02  -4.312858342593e+00 
8 1 -5.187397608193e+02   9.509279551745e+01  -3.168950203061e+02 
8
Step 1000
1 1 -1.064308843691e+02   1.728547497434e+02   2.058329640080e+02 
2 1 -3.770435676089e+02   4.884745722264e+02   1.558681550627e+01 
3 1 -4.618554801068e+01  -2.461763415917e+02  -1.257254869318e+02 
4 1 -1.607734188169e+02  -3.485427520594e+02   7.275248305115e+02 
5 1 -5.282660353931e+02  -6.839134223741e+02   2.595757394808e+01 
6 1 -2.449669752237e-01   2.923442997261e+02  -3.997303792519e+02 
7 1 -1.572810731758e+02  -1.299819226771e+02   4.053609056932e+02 
8 1 -6.951959373898e+02   1.368567066666e+02   3.639560923773e+02 
8
Step 2000
1 1 -1.889360480771e+02  -1.261367216811e+02   2.553077971532e+02 
2 1 -4.341614506714e+02   3.934632834844e+02   2.917155029358e+02 
3 1  2.558075710242e+02  -1.371118877396e+02   3.164202659656e+02 
4 1 -9.837708451661e+01  -6.151319289084e+01   3.442158013161e+02 
5 1 -4.542155901669e+02  -3.569460112423e+02   3.033610047548e+02 
6 1 -1.022883054606e+02   2.501241959452e+02  -2.743823079203e+02 
7 1 -5.582822644722e+02  -5.739302813937e+01   3.861086254900e+02 
8 1 -4.060202231925e+02  -2.619662584162e+02   5.688106970226e+02 
8
Step 3000
1 1  1.814198964990e+02  -4.219815473948e+02   5.876003996479e+01 
2 1  1.244480743126e+02  -2.736637628693e+02  -4.935384152081e+01 
3 1  4.786093527771e+01   1.041742985333e+02   3.231523990679e+02 
4 1  1.814602217870e+02   1.440419953543e+02  -3.027622110875e+02 
5 1  3.551379635464e+01   1.055853451530e+02   1.442008945756e+02 
6 1 -7.189745076137e+01   1.720900321446e+02   3.236383175490e+02 
7 1 -6.181740718845e+02   1.041862954911e+02  -1.957691174622e+01 
8 1  1.166734038487e+02  -4.534486663781e+02   9.343008064692e+01 
8
Step 4000
1 1  4.516649448304e+02  -4.610779280651e+02  -9.044524394051e+01 
2 1  4.638835612231e+02  -4.716240982679e+02  -3.543934013581e+02 
3 1 -2.416530713535e+02   3.441476520351e+02  -1.514166225491e+02 
4 1  1.876476362565e+02   8.765651890152e+01  -5.459814867344e+02 
5 1  2.573261429227e+02   2.785517761159e+02  -3.338401655493e+02 
6 1 -1.198271799210e+02   1.882809471756e+01   6.077787509676e+02 
7 1 -1.943231014932e+02   2.621001468634e+02  -2.303564398169e+02 
8 1  5.377604134819e+02  -1.197898879153e+02  -3.634381232134e+02 
8
Step 5000
1 1  1.780067435313e+02  -1.995602902881e+02  -4.598585980019e+01 
2 1  1.456160795202e+02   9.236946854154e+01  -8.212270984332e+01 
3 1 -1.764895177503e+02   3.815083686403e+02  -5.437814637304e+02 
4 1 -1.700100687465e+02  -1.379144287273e+01  -2.671314648920e+02 
5 1  2.653172426619e+01   1.480895455677e+02  -5.115793561989e+02 
6 1 -2.315517084763e+02  -2.237643441907e+02   2.538665377923e+02 
7 1  3.873480276628e+02   2.300369265354e+02   3.994142910047e+01 
8 1  6.134215825428e+02   3.628039201641e+02  -2.252623305937e+02 
8
Step 6000
1 1 -3.717422278902e+02   1.539474009108e+02   3.260225518097e+01 
2 1 -3.207940455660e+02   6.075399433984e+02   4.529903838458e+02 
3 1  1.681400954644e+02   1.331665317245e+02  -3.695108082366e+02 
4 1 -4.216448699259e+02   3.016229611252e+01  -5.862456238158e+00 
5 1 -2.120503053708e+02  -1.265896709781e+01  -8.977217272889e+01 
6 1 -2.022458277178e+02  -4.266520059349e+02  -2.149053592457e+02 
7 1  6.322210685264e+02   7.347256269270e+00   3.792034714384e+02 
8 1  3.163497029731e+02   4.922570975486e+02   2.229793437168e+02 
8
Step 7000
1 1 -6.027483586943e+02   3.649254469650e+02  -5.431983954797e+01 
2 1 -2.899675774716e+02   3.340144799853e+02   5.667277771701e+02 
3 1  3.953203235791e+02  -2.218082681329e+02   2.084443043014e+02 
4 1 -1.995444186481e+02   8.903645919975e+01  -1.437506545535e+02 
5 1 -7.070088316185e+01  -5.306368467630e+00   4.787513652735e+02 
6 1  2.758202975887e+01  -4.204548264173e+02  -2.444985675000e+02 
7 1  3.792795203310e+02  -1.699099331147e+02   2.321789647297e+02 
8 1 -1.735636509293e+02   2.540064618496e+02   3.047701106793e+02 
8
Step 8000
1 1 -3.246893936097e+02   3.406203687550e+02  -2.500845366706e+02 
2 1  1.353045724423e+02  -4.034936314843e+02   1.266355525670e+02 
3 1  3.033624632607e+02  -3.679254213318e+02   6.016754958040e+02 
4 1  2.376699620761e+02  -3.944108938075e+01  -3.924296875422e+02 
5 1  2.806511959648e+02   1.143941120823e+02   5.206631144339e+02 
6 1  2.374657149981e+02  -2.035664055125e+02   3.612774932384e+01 
7 1 -8.085397965719e+01  -9.948479509587e+01  -3.444670092301e+02 
8 1 -5.378180991299e+02  -5.275637181502e+00  -1.167873680317e+02 
8
Step 9000
1 1  9.754761928426e+01   1.375470650128e+02  -2.960571129765e+02 
2 1  3.157162048585e+02  -6.625453714686e+02  -3.066357504171e+02 
3 1  6.497839941298e+01  -1.900082830342e+02   4.705205230335e+02 
4 1  3.343802083913e+02  -2.508963149325e+02  -2.474694223546e+02 
5 1  3.796012015114e+02   1.415842831581e+02  -2.659402182396e+01 
6 1  2.049028778319e+02   2.963126552572e+01   1.105093220044e+02 
7 1 -3.313962901281e+02   1.243386393485e+02  -6.975496105719e+02 
8 1 -5.031617238312e+02  -9.354139325383e+01  -4.680348526843e+02 
8
Step 10000
1 1  2.512876971386e+02  -1.089409401685e+02  -7.012998963763e+01 
2 1 -6.752673396468e+00  -1.141829537186e+02  -2.308784458092e+02 
3 1 -6.010511030526e+01   7.466420694447e+01   4.685361090836e+01 
4 1 -1.755377504556e+01  -2.164647767486e+02   2.434858064903e+02 
5 1  7.831297103971e+01  -2.461192379318e+01  -5.175299588564e+02 
6 1  4.134678514635e+00   1.046525011369e+02  -1.433778459219e+02 
7 1 -2.208177013060e+02   2.080318537970e+02  -3.653442932900e+02 
8 1 -8.268795026708e+01  -1.231034406753e+02  -2.325424410279e+02 
8
Step 11000
1 1  1.512442270402e+02  -2.598734370980e+02   2.278358326117e+02 
2 1 -3.599869524132e+02   5.461613207847e+02   1.536268097616e+02 
3 1 -5.816765140782e+01   1.230806882689e+02  -2.232429603179e+02 
4 1 -3.194679631565e+02   1.402842232573e+02   5.122846806746e+02 
5 1 -2.941890014967e+02  -2.416308821329e+02  -3.977051288394e+02 
6 1 -1.033972445516e+02   9.050248982244e+01  -3.095621914157e+02 
7 1  3.707942487773e+01   2.803587912809e+01   3.220264806134e+02 
8 1  3.734661080823e+02  -2.018809912271e+02   3.535401972774e+02 
8
Step 12000
1 1  7.521451494148e+01  -2.219759103784e+02   3.038123776681e+02 
2 1 -2.178933529835e+02   5.189562887227e+02   2.630777309807e+02 
3 1 -1.049033332757e+02  -3.714543928236e+01  -2.040807078625e+02 
4 1 -1.269161165718e+02   4.558320952175e+02   2.502097486227e+02 
5 1 -3.651709007348e+02  -2.513751959203e+02   1.551187381817e+02 
6 1 -2.062307950911e+01   1.812117812875e+02  -8.583036645351e+01 
7 1  1.413852246834e+02  -2.193338177741e+02   6.320478191203e+02 
8 1  4.657476767810e+02  -2.033347591031e+02   5.954832700965e+02 
8
Step 13000
1 1  1.309018221129e+02  -1.680257343917e+01   1.198461668210e+02 
2 1  2.520435337777e+02  -1.076289625014e+02  -8.206611534731e+01 
3 1 -2.433259392357e+02  -1.214977704360e+02  -1.087587414712e+02 
4 1  3.476270481861e+02   3.158962281887e+02  -1.324690533871e+02 
5 1 -1.272868584523e+02   1.839460120267e+01   4.707856764610e+02 
6 1  8.269680934965e+01   3.924904089873e+02   2.354667788337e+02 
7 1  5.699858325637e+00  -2.603651857725e+02   2.759492220954e+02 
8 1  1.213667973741e+02   4.954067613366e-01   1.961502196461e+02 
8
Step 14000
1 1  1.544917795646e+02   1.940353016037e+02  -5.339959953289e+01 
2 1  4.161654947155e+02  -5.263116388195e+02  -4.261552795873e+02 
3 1 -2.832292068083e+02   2.821722213691e+01  -1.344659401409e+02 
4 1  5.009224922132e+02  -1.855890613604e+02  -7.643196727436e+01 
5 1  1.264444686966e+02   3.169455711505e+02   2.462973497366e+02 
6 1  3.905725788888e+01   4.744411384299e+02   1.964762794705e+02 
7 1 -1.764815277781e+02  -9.014550747202e+01  -2.592839138648e+02 
8 1 -3.013963970244e+02   2.465183233904e+02  -3.771889958650e+02 
8
Step 15000
1 1  2.495318567232e+01   2.233848737967e+02   8.460642317340e+00 
2 1  5.170055039513e+01  -2.723056222379e+02  -3.177760670094e+02 
3 1 -7.305988885745e+01   2.304810007724e+02  -2.056287974572e+02 
4 1  1.111110279649e+02  -5.070649240785e+02   3.187963287214e+02 
5 1  1.947929975121e+02   3.179903024881e+02  -1.526463077802e+02 
6 1 -7.678185908795e+01   1.931539233011e+02  -1.358683057568e+02 
7 1 -1.685118282729e+02   7.094788887523e+01  -3.641310337322e+02 
8 1 -3.785716321214e+02   2.321675110058e+02  -5.104287971421e+02 
8
Step 16000
1 1 -1.197270539731e+02   3.789201260161e+01   1.979965100969e+02 
2 1 -3.506975196579e+02   2.582486121820e+02   8.375416183120e+01 
3 1  2.164992205835e+02   2.235545773591e+02  -1.475960290618e+02 
4 1 -3.805873958252e+02  -2.739212456179e+02   4.179811709740e+02 
5 1  1.216974331540e+02  -6.109416775676e-01  -2.334479488358e+02 
6 1 -7.432889373099e+01  -3.012750898814e+02  -2.425196166523e+02 
7 1  4.805132605435e+01   8.553519684126e+01  -2.366525057879e+01 
8 1 -4.679081239625e+01  -6.910256151538e+01  -1.624964438722e+02 
8
Step 17000
1 1 -1.050593527523e+02  -1.835374207767e+02   2.037430511730e+02 
2 1 -2.706564489798e+02   4.100347254358e+02   2.557279074770e+02 
3 1  2.658714792038e+02   2.241260904638e+01   4.643448286951e+01 
4 1 -4.474325872805e+02   2.595776429756e+02  -5.674238293640e+01 
5 1  3.300972537517e+01  -3.133201689841e+02  -1.837091397356e+01 
6 1  5.797760317014e+01  -5.727099247100e+02   9.035118703374e+01 
7 1  2.597877987814e+02   5.257372935653e+01   2.508930406056e+02 
8 1  3.454492063035e+02  -3.283071574992e+02   1.803574213088e+02 
8
Step 18000
1 1 -6.229227430647e-01  -2.115762152048e+02  -1.037311709125e+02 
2 1  1.577215442045e+02   7.751460769257e+01   2.942299242912e+01 
3 1  2.287047704953e+01  -1.302591091768e+02   2.160653298451e+02 
4 1 -1.008709390347e+02   4.920408792996e+02  -6.093144931954e+02 
5 1 -3.932007804026e+01  -3.148401031116e+02   8.320550876279e+01 
6 1  1.240303392186e+02  -3.685110308088e+02   4.335101085602e+02 
7 1  2.457429144918e+02   9.946496956778e+01   1.221833498134e+02 
8 1  4.055124321280e+02  -2.503669267452e+02   1.718145400569e+02 
8
Step 19000
1 1 -2.498916484808e+01  -6.545171991493e+00  -4.757477260660e+02 
2 1  3.441151261004e+02  -2.701214539270e+02  -1.932917720010e+02 
3 1 -1.869269699132e+02  -1.078425097642e+02   2.434055084712e+02 
4 1  1.813010669642e+02   1.563325929735e+02  -5.910923645205e+02 
5 1 -1.058539170934e+02  -6.559178965238e+01  -9.624842156072e+01 
6 1 -7.389798597226e+00   5.520922614633e+01   2.844439406508e+02 
7 1  4.454442777211e+00   1.603023046608e+02  -1.710221553733e+02 
8 1  8.590066044385e+01   6.543686913784e+01  -1.530262111189e+01 
8
Step 20000
1 1 -1.980916574270e+02   2.201277113798e+02  -5.360548012458e+02 
2 1  4.984933324695e+01  -2.675360876367e+02  -1.197617879105e+01 
3 1 -6.905525491702e+01  -4.967318064984e+01   1.753942207609e+02 
4 1  9.472588912232e+01  -3.783420580779e+02  -6.331721629143e+01 
5 1 -1.117944689704e+02   1.169490994212e+02  -2.486273404425e+02 
6 1 -2.080464242385e+02   2.123859234622e+02  -2.153259748086e+02 
7 1 -2.481195004544e+02   7.876327112419e+01  -1.890275126438e+02 
8 1 -2.983510498269e+02   2.682384452963e+02  -1.752925435736e+01 
8
Step 21000
1 1 -2.690044642053e+02   2.183535037802e+02  -1.795531768579e+02 
2 1 -3.180810501103e+02  -5.592455531963e+01   3.995798253431e+02 
3 1  2.381617612565e+02  -1.025711914291e+02   1.047225018025e+02 
4 1 -1.461259554863e+02  -5.418262136152e+02   3.143627260083e+02 
5 1  4.820870337073e+00   8.547504506944e+01  -6.704444726190e+01 
6 1 -2.475573228887e+02  -3.171215980995e+01  -4.489528594264e+02 
7 1 -2.942709108337e+02  -1.209213200774e+02   1.000075919416e+02 
8 1 -4.224669774060e+02   1.965675233322e+02   1.853696398214e+02 
8
Step 22000
1 1 -5.266595687955e+01  -4.216474242309e+01   3.074161500928e+02 
2 1 -2.666330211974e+02   4.476095236903e+01   4.876242421778e+02 
3 1  3.111306304372e+02  -1.713618532795e+02   3.317404344277e+01 
4 1 -1.491954921046e+02  -1.651252939761e+02   1.553986308219e+02 
5 1  1.624899156839e+02   2.462137998219e+01   2.766053295337e+02 
6 1 -6.972688042112e+01  -3.028919184027e+02  -1.274740589580e+02 
7 1 -9.543610027831e+01  -2.119315342705e+02   2.898267770144e+02 
8 1 -2.431504541477e+02   2.470749836647e+01   2.647584895321e+02 
8
Step 23000
1 1  2.763313338850e+02  -3.197600425400e+02   5.216419315264e+02 
2 1  1.398032380364e+02   1.327834728496e+01   3.727484997917e+01 
3 1 -1.011001203392e+01  -6.342250520519e+01  -8.692977406840e+01 
4 1  1.279662931711e+02   3.740422812951e+02  -1.808313855421e+02 
5 1  1.592617163978e+02   1.484100735882e+02   3.336910027610e+02 
6 1  1.627120469973e+02  -1.705461013872e+02   3.172520814691e+02 
7 1  1.956012857470e+02  -6.581743969654e+01   8.940118626443e+01 
8 1  2.315599572929e+01  -1.102097959472e+01   2.693052935253e+01 
8
Step 24000
1 1  3.596957029973e+02  -3.238691307198e+02   3.305189341086e+02 
2 1  3.739659584406e+02   9.240808617832e+01  -5.067216721339e+02 
3 1 -3.636248489458e+02   1.790886498834e+02  -2.217975180407e+02 
4 1  3.346921292465e+02   5.665492208748e+02  -1.254647845644e+02 
5 1 -8.372388925270e+01   3.301807469890e+02   2.025307035202e+00 
6 1  2.760745070272e+02   3.133166844863e+02   2.758457255680e+02 
7 1  3.608885959882e+02   1.357083337137e+02  -2.683589222586e+02 
8 1  1.678051617992e+02   7.847284060438e+01  -2.831445963771e+02 
8
Step 25000
1 1  1.110361888007e+02  -1.644302924519e+01  -5.946628449836e+00 
2 1  1.275464728739e+02   3.219160390677e+02  -5.167399380530e+02 
3 1 -2.739525768353e+02   2.507374590260e+02  -2.452912819690e+02 
4 1  1.977377168494e+02   2.629796389439e+02   2.751511214463e+02 
5 1 -3.280732270530e+02   2.063917314596e+02  -2.679912325932e+02 
6 1  2.448430452826e+02   6.058021518103e+02  -2.187072805661e+02 
7 1  2.516111719697e+02   1.059933200628e+02  -2.906229019718e+02 
8 1  1.757837901303e+02   8.730842308641e+01  -2.616176044653e+02 
8
Step 26000
1 1 -1.191330300391e+02   3.043081466995e+02  -1.286804094863e+02 
2 1 -2.532072744072e+02   3.702803814704e+02  -1.683051503632e+01 
3 1  1.486641385502e+02   2.790692074024e+01  -1.259644552486e+02 
4 1 -7.582660948329e+01  -1.819296488924e+02   4.133284189366e+02 
5 1 -2.459824347608e+02  -2.449651864963e+02  -9.389023970640e+01 
6 1  1.549169890835e+02   3.585452076731e+02  -4.730100588375e+02 
7 1 -7.116682179190e+01  -1.148220386312e+02   6.772089188817e+01 
8 1  1.792418419331e+02  -5.705271220730e+01   6.245987451849e+01 
8
Step 27000
1 1 -4.244815710161e+01   3.536318660410e+02  -2.857015697025e+01 
2 1 -2.901028795622e+02   9.582479392190e+00   3.638184675222e+02 
3 1  3.074684501222e+02  -1.822243020147e+02   9.476925861072e+00 
4 1 -1.200344598910e+02  -3.772277573638e+02   9.092568130588e+01 
5 1  1.424850109210e+02  -5.547846800520e+02   2.352448966802e+02 
6 1  2.150328360065e+01  -1.149412584255e+02  -1.301021731209e+02 
7 1 -3.802405329905e+02  -1.897110610153e+02   3.060994613170e+02 
8 1  2.238116927464e+02  -1.920884862305e+02   2.327007242366e+02 
8
Step 28000
1 1  1.674986133018e+02   1.463647197794e+02   1.679452365972e+01 
2 1 -1.430102035980e+01  -4.785783475053e+02   2.322016830879e+02 
3 1 -5.888641581490e+01  -4.576360090536e+01   4.732988801828e+01 
4 1  6.286521991482e+01  -2.562323289927e+02  -1.708749940659e+02 
5 1  4.475976516193e+02  -3.309764473799e+02   1.761335625066e+02 
6 1 -1.923182588580e+02  -2.853280034480e+02   3.400003241057e+02 
7 1 -4.311635710915e+02   1.440501038259e+01   7.439642930357e+01 
8 1  1.922956721827e+02  -1.841800379016e+02  -1.180125595769e+01 
8
Step 29000
1 1  1.429350438181e+02  -7.357068373400e+01  -1.345186168462e+02 
2 1  1.611932115200e+02  -5.783657567167e+02  -1.359604835117e+02 
3 1 -4.722277038837e+02   2.932215995281e+02   3.587340165497e+01 
4 1  1.364953284195e+02  -6.613795369313e+00   4.761821742024e+01 
5 1  3.360859852905e+02   1.903929121044e+02  -2.470017894439e+02 
6 1 -3.906161657367e+02  -8.949198874701e+01   3.157882809116e+02 
7 1 -1.429873225346e+02   2.006089622413e+02  -3.259921400740e+02 
8 1 -7.196050405725e+00  -1.137603922751e+02  -3.707451329589e+02 
8
Step 30000
1 1 -1.452673644660e+02  -1.298481005787e+02  -2.832717226023e+02 
2 1  6.387478990930e+01  -1.778096900930e+02  -2.582460381344e+02 
3 1 -3.174911773411e+02   3.409299238059e+02   9.909979496230e+01 
4 1 -7.140739720953e+01   1.690529792829e+02   3.561678143946e+02 
5 1 -8.698414059151e+01   4.010621537111e+02  -4.223317088523e+02 
6 1 -3.593405305594e+02   4.561652590211e+01  -9.832992232930e+01 
7 1  2.929366042935e+02   6.601554694811e+01  -3.235118478252e+02 
8 1 -2.742359690206e+02  -9.809888814620e+01  -3.530869278586e+02 
8
Step 31000
1 1 -3.469129281935e+02  -7.026275938721e+01  -1.736275122935e+02 
2 1 -4.921231805047e+01   2.784130394305e+02  -7.564538116483e+01 
3 1  3.098978700495e+02  -8.219626810569e+01   2.260015695555e+02 
4 1 -3.285750090511e+02   1.770442271205e+02   9.767594290929e+01 
5 1 -3.924368172198e+02   1.026655275355e+02  -2.609382296714e+01 
6 1 -5.285875731454e+01  -1.509696691621e+02  -2.386437346785e+02 
7 1  5.157056883023e+02  -2.094543288707e+02   1.517419151165e+02 
8 1 -3.918014903088e+02  -7.243790776140e+01   9.696370159377e+01 
8
Step 32000
1 1 -2.284134086731e+02  -3.850610718170e+01   1.247594273248e+02 
2 1  4.676317282916e+01   3.434960859951e+02   8.212557671667e+01 
3 1  6.667174185089e+02  -5.303864174968e+02   2.534959901610e+02 
4 1 -3.221103440946e+02   3.008572545793e+01  -5.889809785337e+02 
5 1 -3.077972021954e+02  -2.300254172147e+02   4.469447202332e+02 
6 1  2.586182945201e+02  -3.937958650987e+02   1.376723620831e+02 
7 1  3.067131565901e+02  -1.643377832060e+02   5.401930689525e+02 
8 1 -2.554681593132e+02   8.268404309888e+01   5.201618762617e+02 
8
Step 33000
1 1  2.324197656674e+01  -7.685199861476e+01   2.715148158114e+02 
2 1  1.866644961146e+02   7.808586047141e+01   2.821259966496e+01 
3 1  2.933268046282e+02  -4.504534099404e+02   8.922910441513e+01 
4 1 -6.345741664962e+01  -1.576252862274e+02  -8.035641599693e+02 
5 1  1.835662452047e+01  -9.964274329792e+01   3.178485513862e+02 
6 1  2.644378944047e+02  -2.546700162922e+02   4.704443104776e+02 
7 1 -1.660570206866e+02   2.593652853859e+02   3.470518164178e+02 
8 1  1.894048886245e+01   2.648863164513e+02   4.763410046280e+02 
8
Step 34000
1 1  9.292015154169e+01  -1.133369450131e+02   1.129681770727e+02 
2 1  1.039202618461e+02  -8.906874095964e+01  -4.888261758822e+01 
3 1 -3.417825903987e+02   5.963189151402e+01  -1.289384507969e+02 
4 1  1.508940588422e+02  -2.001538701811e+02  -1.711899079171e+02 
5 1  2.240309226544e+02   2.935159991426e+02  -2.692014012872e+02 
6 1  2.467266055809e+01   1.718582912528e+02   1.975002283361e+02 
7 1 -4.542682989725e+02   5.194212483509e+02  -1.967726678171e+02 
8 1  2.063623843586e+02   2.401715295562e+02   6.562877207414e+01 
8
Step 35000
1 1 -6.952455448844e+00  -8.839016008107e+01  -1.159344516687e+02 
2 1 -1.256343591695e+02   3.404300525830e+01   6.062643405697e+01 
3 1 -4.918454245061e+02   3.979657078368e+02  -2.215081059221e+02 
4 1  1.691170886390e+02  -1.006776867979e+01   5.580471830350e+02 
5 1  1.670880962104e+02   3.381502382232e+02  -5.157861306976e+02 
6 1 -1.017398646252e+02   3.846479863684e+02  -4.135920334115e+02 
7 1 -3.048584303201e+02   1.839704174474e+02  -4.690946281560e+02 
8 1  2.087591309467e+02   1.666208758389e+01  -2.716619578334e+02 
8
Step 36000
1 1 -2.842285338088e+01  -1.762175683141e+01  -1.247653482261e+02 
2 1 -1.916318867599e+02   2.155731470887e+02   2.460042360980e+02 
3 1 -6.530206200109e+01   2.484736236090e+02  -1.805239302846e+02 
4 1  1.107590440162e+02   2.612769773645e+02   4.975364344744e+02 
5 1 -3.036803917368e+00  -1.235338132962e+02  -5.117882410128e+01 
6 1  6.461131172483e+01   1.474796061319e+02  -6.102630684137e+02 
7 1  1.055842630571e+02  -4.610975906410e+02  -2.231943039370e+02 
8 1  9.459621096544e+01  -1.070776957432e+02  -2.802491966390e+02 
8
Step 37000
1 1  1.034641951584e+02   5.361192885697e+01   4.743730757382e+01 
2 1 -1.082975853568e+01   1.658881326336e+02   2.376586894670e+02 
3 1  3.289825963526e+02  -6.455973139736e+01  -1.224326049975e+02 
4 1  1.220776020010e+02   3.098885635134e+02  -1.859485207463e+02 
5 1 -8.299012391698e+01  -5.365484756279e+02   5.465982160015e+02 
6 1  2.739920351616e+02  -1.927086681589e+02  -1.530076177462e+02 
7 1  3.570061887364e+02  -6.927307362166e+02   1.713192706613e+02 
8 1 -6.590488581397e+00   5.541268357033e+01  -9.325151944727e+01 
8
Step 38000
1 1  1.867134412056e+02   1.169271210359e+02   9.825162341767e+01 
2 1  1.397400809551e+02  -9.408966696877e+01   2.819880632186e+00 
3 1  2.255443381417e+02  -1.018811119940e+02  -7.851262116366e+01 
4 1  1.571998884620e+02   5.541008651124e+00  -5.062865933357e+02 
5 1 -4.586391717358e+01  -3.575929275247e+02   5.040692645967e+02 
6 1  1.730674784200e+02  -1.744765952608e+02   3.851342731006e+02 
7 1  2.272262736163e+02  -2.256535381306e+02   2.509567507225e+02 
8 1 -3.228652868051e+01   2.623887555936e+02   2.013077867340e+01 
8
Step 39000
1 1  7.541156261067e+01   1.797914084636e+02  -9.859043814757e+01 
2 1  8.390585430925e+00  -3.009218769943e+02  -1.946053889954e+02 
3 1 -1.375549472932e+02   7.363738275742e+01   2.645716340045e+01 
4 1  9.255711213791e+01  -3.984580882002e+02   1.002404908318e+01 
5 1 -8.160222550928e+00   2.164492580812e+02  -1.440185792063e+02 
6 1 -2.097287468310e+02   1.751227839376e+02   3.785363209601e+02 
7 1 -1.127750758406e+02   4.326425675275e+02   4.802139840134e+00 
8 1 -7.113487521073e+00   1.292475633290e+02  -2.472390727929e+01 
8
Step 40000
1 1 -7.712488672271e+01   1.972214856330e+02  -2.748563150340e+02 
2 1 -2.696607599295e+02  -2.785042492593e+02  -1.401012213532e+02 
3 1 -2.320530145292e+02   5.055806763950e+01   1.895113426404e+02 
4 1 -5.891633107204e+01  -4.724113862896e+02   7.100246559109e+02 
5 1 -4.513093491465e+01   4.987953792451e+02  -6.201884714215e+02 
6 1 -4.656289872684e+02   3.934045313360e+02  -7.627033825416e+01 
7 1 -3.276045935936e+02   5.888176126383e+02  -2.035726308330e+02 
8 1  1.667315295758e+01  -3.276129786113e+02  -9.099357093815e+01 
8
Step 41000
1 1 -2.754580588699e+01   8.110921603450e+01  -7.968984698591e+01 
2 1 -3.118856016150e+02  -8.358979848441e+01   6.425743958718e+01 
3 1  2.487858564305e+01  -2.490602633122e+02   2.372144393501e+02 
4 1 -1.537146517561e+02  -4.196829835726e+01   6.652418411005e+02 
5 1 -9.585705705024e+01   1.733577122691e+02  -3.609762177148e+02 
6 1 -2.664326913515e+02   1.743219222723e+02  -3.463638117802e+02 
7 1 -2.405980835326e+02   1.206207731596e+02  -1.262270701277e+02 
8 1  1.418465050966e+01  -6.096397135487e+02  -3.076937731441e+01 
8
Step 42000
1 1  1.703112295129e+02  -1.502794720697e+02   3.998242382327e+02 
2 1  6.953588531984e+00   9.133560478105e+01   1.156918759873e+02 
3 1  1.749272173891e+02  -3.529703056677e+02   4.943142248985e+01 
4 1 -1.256247950686e+02   5.225290732721e+02  -6.013701373500e+01 
5 1 -4.591418946901e+01  -2.617284917185e+02   2.624880619711e+02 
6 1  2.037762315684e+02  -2.086995953636e+02  -1.037723656415e+02 
7 1  2.589039219900e+01  -3.846541456361e+02   8.336155448358e+01 
8 1 -7.238039317436e+00  -3.437602318985e+02   1.245410834879e+02 
8
Step 43000
1 1  1.923606293503e+02  -3.245268758291e+02   6.492175367688e+02 
2 1  3.806292768104e+02   1.520962661792e+02  -1.029015403571e+02 
3 1 -6.406770671141e+01   9.156599314385e+01  -2.210235676151e+02 
4 1 -7.555454081286e+01   6.601190478468e+02  -5.455970582540e+02 
5 1  1.273441860473e+02  -1.876316039825e+02   4.797539784910e+02 
6 1  4.719701858800e+02  -2.851929654436e+02   2.795173574365e+02 
7 1  2.470066082550e+02  -3.735235672290e+02   1.423291815958e+02 
8 1 -3.402433294307e+01   2.148808874064e+02   2.082456642746e+02 
8
Step 44000
1 1 -9.852943309670e+01  -2.432958431471e+02   2.845577446428e+02 
2 1  4.275763965580e+02   1.352470498630e+02  -3.675842797428e+02 
3 1 -3.350844501226e+02   6.675675015945e+02  -2.611284971758e+02 
4 1 -1.044479831925e+02   1.821802539297e+02  -2.871663688478e+02 
5 1  2.925782104986e+02   2.721707380273e+02   9.719825879505e+01 
6 1  2.921558548829e+02  -1.095193161460e+01   2.909211281881e+02 
7 1  2.974366814795e+02   7.802708500173e+01   2.765073487052e+01 
8 1 -5.790468235917e+01   4.631498543465e+02   1.055054437405e+02 
8
Step 45000
1 1 -3.864037496923e+02   5.846050078237e+01  -3.981297781469e+02 
2 1  1.510552311201e+02   1.085432202584e+02  -3.633362706230e+02 
3 1 -1.445985849285e+02   5.869339174861e+02   8.472004876333e+00 
4 1 -1.487142079826e+02  -4.575512281381e+02   1.148538477093e+02 
5 1  2.735030610914e+02   3.805953150967e+02  -3.000522647631e+02 
6 1 -1.013164498895e+02   1.663109879186e+02  -1.490491687713e+01 
7 1  1.944792941458e+02   4.142240541253e+02  -3.031926318287e+01 
8 1 -7.002776877734e+01   2.074379718795e+02  -9.531383272161e+01 
8
Step 46000
1 1 -3.082745691761e+02   2.973859419681e+02  -7.293094265181e+02 
2 1 -1.302035830018e+02   9.228200033028e+01  -3.860914683502e+01 
3 1  3.513414630482e+02  -2.205836803882e+02   2.945431419072e+02 
4 1 -5.783311117104e+01  -6.585109657437e+02  -8.281433230540e+01 
5 1  3.236274638023e+01  -1.514439937023e+02  -2.156950852258e+02 
6 1 -3.367084019732e+02  -4.568127108533e+01  -1.687398469140e+02 
7 1  6.405451245677e+00   3.015410363350e+02   7.467993042592e+01 
8 1 -5.502375673121e+01  -1.093786910320e+02  -1.916645616622e+02 
8
Step 47000
1 1  4.386524025687e+01   2.212724826673e+02  -4.281910386875e+02 
2 1 -2.092662440004e+02   7.023102196750e+01   3.557590343153e+02 
3 1  4.878226407582e+02  -8.803823072043e+02   2.741017978628e+02 
4 1  1.695739665589e+02  -2.904639157648e+02  -6.031453271186e+02 
5 1 -2.697013584110e+02  -6.908053164384e+02   1.248366481435e+02 
6 1 -2.970594395322e+02  -3.670759452810e+02  -1.173858620715e+01 
7 1 -1.889761279497e+02  -7.744514269226e+01   1.604338230747e+02 
8 1 -4.364070917681e-01  -5.852668292636e+01  -8.253867852680e+01 
8
Step 48000
1 1  2.284698154160e+02  -9.603960706859e+01   9.624503970235e+01 
2 1 -1.566315342527e+02   2.132233761540e+01   5.082990229427e+02 
3 1  2.213589206935e+01  -6.034786686317e+02  -1.473073871762e+01 
4 1  3.224557581485e+02   2.177192894906e+02  -5.308926370718e+02 
5 1 -3.939027682368e+02  -4.884680183106e+02   1.968642693838e+02 
6 1 -1.105614067326e+02  -3.335635662594e+02   1.116055156437e+02 
7 1 -2.808811372223e+02  -3.445306226972e+02   3.211721084345e+01 
8 1  7.590726677215e+01   1.970984014745e+02   1.119556319473e+02 
8
Step 49000
1 1  6.121890989939e+01  -3.067465210716e+02   2.777312338861e+02 
2 1 -1.072230067435e+02  -7.041256873824e+01   3.377122561036e+02 
3 1 -4.520688136007e+02   2.616632271263e+02  -2.372645183537e+02 
4 1  2.250319567691e+02   3.854500948166e+02   2.657004942886e+02 
5 1 -2.635088307503e+02   2.669775829910e+02  -3.562752082116e+01 
6 1  8.273159903516e+01   4.623448469400e+01  -6.158441988260e+01 
7 1 -2.032845737460e+02  -3.476184456447e+02  -2.107657333846e+02 
8 1  1.238912501111e+02   1.997332126048e+02   1.750125967115e+02 
8
Step 50000
1 1 -1.533055176907e+02  -1.741475576263e+02   7.906687430603e+01 
2 1 -5.428515037228e+01  -1.974146819124e+02   1.001131430287e+01 
3 1 -2.984110457233e+02   7.008660284524e+02  -1.980239744301e+02 
4 1 -6.198650834111e+01   1.767811596135e+02   8.700401415102e+02 
5 1 -1.262116074641e+01   6.970522560579e+02  -1.417690494333e+02 
6 1  2.360926852578e+02   3.398480727839e+02  -2.852342047706e+02 
7 1 -2.244092745486e+01  -1.704988953001e+02  -2.919183054281e+02 
8 1  9.343669760176e+01  -1.061748960093e+02   3.866433297991e+01 
8
Step 51000
1 1 -6.154614649820e+01   1.748894706320e+02  -8.002933873171e+01 
2 1  3.898201478470e+01  -2.831611965106e+02  -2.175629918012e+02 
3 1  3.047621389026e+02   2.720249623261e+02  -2.186388418710e+01 
4 1 -2.985928276503e+02  -8.744160567559e+01   5.267092269356e+02 
5 1  1.615947908538e+02   3.298441283043e+02   8.041761192326e+01 
6 1  2.789606629379e+02   2.747654960325e+02  -1.712632825120e+02 
7 1  1.005174725581e+02   7.401013836678e+01  -9.860740064120e+01 
8 1 -1.626906833316e+01  -3.003257373259e+02  -1.383960067565e+02 
8
Step 52000
1 1  2.525859998587e+02   3.714422058106e+02   7.724677489977e+01 
2 1  8.686246434989e+01  -2.267033430586e+02  -1.986028221655e+02 
3 1  5.522050974776e+02  -3.854026238581e+02   6.201635455074e+01 
4 1 -2.858378705955e+02  -1.371815274990e+02  -2.784485404659e+02 
5 1  1.785175727396e+02  -3.154939878559e+02   2.752503996267e+02 
6 1  1.310728571618e+02   6.805659494255e+01   1.983385074431e+02 
7 1  8.572352075904e+01   2.824096469415e+02   1.723558900537e+02 
8 1 -1.318747662549e+02  -1.029096625683e+02  -1.477731700028e+02 
8
Step 53000
1 1  3.955856873408e+02   1.998300192133e+02   3.386874902142e+02 
2 1 -2.957154978216e+00  -6.800979934495e+00  -2.485057279693e+01 
3 1  5.832026719101e+01  -4.343570327414e+02   2.089230767365e+01 
4 1 -2.553092215565e+01   9.360069160702e-01  -4.732245109182e+02 
5 1  1.160837425472e+02  -4.490620689209e+02   4.561867609931e+01 
6 1 -1.442287605832e+02   5.229043886776e+01   3.442262316732e+02 
7 1  3.697015625014e+01   3.241963935444e+02   2.569288065822e+02 
8 1 -1.621726258652e+02   2.191452289437e+02   1.853611586562e+01 
8
Step 54000
1 1  1.803679415858e+02  -1.735960719295e+02   3.202432799494e+02 
2 1 -1.257398725754e+02   2.459414386219e+02   5.349529493885e+01 
3 1 -6.190027847532e+02   1.327442228426e+02  -1.045345877476e+00 
4 1  2.787776271246e+02   1.381712403576e+02   1.693139304188e+02 
5 1  8.680425130081e+01   1.587442235927e+01  -4.234470005121e+02 