8
Step 0
1 1 -1.617009810547e+02   3.499836431780e+02   9.670322036942e+01 
2 1  6.579416937860e+01   2.280060486291e+02  -1.582839607652e+02 
3 1 -6.135575297045e+01   6.867441165061e+01  -2.235871020339e+01 
4 1  3.367717746942e+02   6.945229931662e+01   5.895565159453e+02 
5 1 -1.941750986483e+02  -3.959948441136e+02   1.451362027938e+02 
6 1 -3.561674960723e+02   2.371270333453e+02   4.390690026849e+01 
7 1  6.398257805213e+01  -3.981415810091e+02  -1.052703156695e+02 
8 1  3.094942320484e+02  -9.294175695775e+01   8.728695809416e+00 
8
Step 1000
1 1 -3.254308539774e+02  -2.233925650200e+02   3.776703992414e+01 
2 1  2.790105046524e+02  -4.358863332012e+02  -1.177377450347e+01 
3 1 -1.166868760973e+02  -7.061374548262e+01   3.912483254442e+02 
4 1 -1.177103153213e+02   2.015301664925e+02   6.645772464489e+01 
5 1  3.114074650277e+02  -8.353965072987e+01  -4.902989413343e+00 
6 1  4.204542261076e+02  -5.868534477777e+02   1.573008884345e+02 
7 1 -9.526301517094e+01  -3.061535154254e+01   4.212956512961e+01 
8 1 -1.480429119378e+02  -6.245850937575e+02  -2.248277682967e+02 
8
Step 2000
1 1  2.806701545545e+02  -1.079604015713e+02  -1.129228028126e+02 
2 1  1.106041708219e+02  -5.579608758815e+02   3.458035850378e+02 
3 1 -3.708892050932e+01   5.075965829553e+01   4.961154088869e+01 
4 1  6.593823523715e+01  -3.795326986177e+02   1.209858020366e+02 
5 1  2.900372418372e+02   2.050352157871e+02   1.322449541043e+02 
6 1  3.679095704540e+02  -1.135486092454e+02  -1.204746847932e+02 
7 1  1.392193258171e+02  -1.457558237678e+02  -2.000444279824e+02 
8 1  2.269280251700e+02  -3.726023890979e+01  -1.166013255160e+02 
8
Step 3000
1 1  1.827095108578e+02   1.511655251247e+02  -2.310876491417e+02 
2 1  1.724200806225e+02  -4.814186655913e+02  -1.139651352362e+02 
3 1 -9.572024445220e+01   4.578997397657e+01   6.253061872189e+02 
4 1  3.586757548447e+02  -3.234233601661e+02   7.870378494031e+01 
5 1  1.644593672703e+02  -2.463540304436e+02  -1.232218443340e+02 
6 1  2.255892662184e+02   1.657865282447e+02  -6.362175329356e+01 
7 1 -3.703862886795e+02   4.598283190374e+01  -1.265732074977e+02 
8 1 -8.828730763736e+01  -1.177592202681e+02   5.291833820304e+01 
8
Step 4000
1 1 -2.214457804680e+02   2.921010285095e+02  -2.388131774771e+02 
2 1  2.356602591974e+02  -1.015708066332e+02  -1.670798000830e+02 
3 1  2.681598165384e+02  -1.873716141328e+02   2.697425350433e+02 
4 1  3.958375379079e+02  -1.772094422208e+02  -3.122076608757e+02 
5 1  5.647544806493e+01  -2.331482163364e+01   4.352825599230e+02 
6 1  2.094205354497e+02  -1.232590926161e+02   1.662822646612e+02 
7 1  1.034482203428e+02  -7.761013653488e+01  -3.053211702343e+02 
8 1 -3.236069256712e+02  -5.830101955863e+01  -2.087197940524e+02 
8
Step 5000
1 1 -1.210361581967e+02   9.113993309086e+01  -1.733519898952e+02 
2 1  3.048919617243e+02  -6.579558850980e+02  -1.331799116116e+02 
3 1 -4.648305426331e+01  -1.228881947043e+02   2.727899248505e+02 
4 1  6.076177329168e+02   1.568358375497e+02   1.566244909102e+01 
5 1  2.255726615236e+02  -3.075529628187e+01   3.228052289048e+02 
6 1  8.114334208599e+01   3.823117841138e+02   5.723512196140e+01 
7 1  1.170562638158e+02  -7.006042747143e+02  -3.567366173253e+02 
8 1 -2.799333724936e+02  -3.227628909947e+02  -1.892591534738e+02 
8
Step 6000
1 1  3.255988848052e+02  -6.118137343289e+02  -3.283324211643e+02 
2 1  4.823530901394e+02  -2.223187035963e+02  -9.123162598232e+01 
3 1 -2.600125227367e+02  -3.786437028683e+02   1.075134051524e+02 
4 1  2.546261370042e+02   2.198746937664e+02  -3.709189279776e+02 
5 1 -2.302488641776e+00  -2.058335991703e+02   8.784758317342e+01 
6 1  1.974309204003e+02  -5.542210046544e+01   1.422363737272e+02 
7 1  1.416374517537e+02  -2.609345699384e+02  -3.360674676553e+02 
8 1  4.706699038405e+02  -5.239687419775e+02  -4.365640487230e+01 
8
Step 7000
1 1  3.754436349843e+02  -2.645419519211e+02  -2.599036752874e+02 
2 1  3.144671849320e+02  -5.152687934528e+02   1.258902126560e+02 
3 1  2.816441871858e+02  -4.439768104478e+02   1.966662798720e+02 
4 1  3.326792323815e+02   1.186555167806e+01  -2.676641277475e+02 
5 1  1.036267418799e+02  -3.444524274197e+01  -1.250117364625e+02 
6 1 -1.642644190332e+02  -3.406738705018e+01   1.194773976604e+02 
7 1  1.467849015586e+02   6.813200319124e+01  -3.713842026001e+02 
8 1 -7.500773169956e+01   1.003757441782e+02  -1.019973583302e+02 
8
Step 8000
1 1  2.819221679006e+02   3.152020020709e+02  -6.623623192714e+01 
2 1  4.210769310824e+02  -3.882420563093e+02  -5.740363204685e+02 
3 1 -1.276156570406e+02   2.869335369065e+02  -9.638927250744e+01 
4 1  3.189873329206e+02  -1.953086547113e+02   1.314518914056e+02 
5 1  5.863234882628e+02  -1.407208261028e+01   1.929083175363e+02 
6 1  1.871541648304e+02   1.099439059165e+02   2.195070278577e+02 
7 1 -8.085796647059e+01  -1.482739351773e+02  -3.717681718626e+02 
8 1 -2.131398212305e+02  -1.076050072826e+02  -4.934496348547e+02 
8
Step 9000
1 1 -1.555404731181e+02   1.574223564908e+02  -3.832924624091e+02 
2 1  3.279311214173e+02  -3.871113665468e+02  -1.521315357126e+02 
3 1  2.251856732034e+02   5.977011703792e+01   1.213631144721e+02 
4 1  1.798036984397e+02  -1.783578988049e+02  -3.776949228876e+02 
5 1  1.322274610585e+02   1.147265724551e+02   2.138142565637e+02 
6 1  1.979466868716e+02  -2.274034017044e+02   2.674788094820e+02 
7 1 -2.753446570776e+02   4.095563277330e+01  -4.234590325888e+02 
8 1 -1.799565531945e+02  -3.828610403039e+02  -3.196868814539e+01 
8
Step 10000
1 1  2.634637792426e+02  -2.478887505257e+02  -1.449754825410e+02 
2 1  2.749136415657e+02  -2.358576719878e+02  -4.665278889881e+02 
3 1 -2.392742809843e+02   2.267161648178e+02   1.494198739463e+02 
4 1  5.165762853682e+02  -1.162241580789e+02  -3.086845753157e+02 
5 1  1.289140238283e+01   3.040678070206e+01  -4.874139464375e+01 
6 1  2.305292995273e+01  -1.343253357882e+02   5.929237339089e+01 
7 1  2.730513969947e+02  -3.782605747707e+02  -1.862378327793e+02 
8 1  4.306016680005e+01  -1.095382496879e+01  -3.258702853023e+01 
8
Step 11000
1 1  3.129092712401e+02  -4.495245600143e+02   1.664013441044e+02 
2 1  6.796245274238e+02  -6.885369606431e+02  -2.572698107448e+02 
3 1 -2.416926796318e+02   2.215140558130e+02  -1.629089796696e+02 
4 1  2.606348018925e+02   2.252929381681e+02  -4.303951866274e+02 
5 1 -4.126524620913e+02   2.967961742292e+02   3.274258510732e+02 
6 1 -5.996352028330e+01   1.660420493208e+02   1.233268231995e+02 
7 1  4.002068891381e+02  -2.790037885205e+02  -2.277904684264e+02 
8 1 -2.236238450323e+01  -1.121963495881e+02  -2.581682408517e+02 
8
Step 12000
1 1  2.614977351643e+02  -2.275571208315e+02  -1.073514488499e+02 
2 1  4.472065614069e+02   6.976228243892e+00  -2.543489101492e+02 
3 1 -5.594253810284e+02   5.995769054117e+01  -2.697507729663e+02 
4 1  5.231038318094e+02   1.356374993799e+02  -2.954562339813e+02 
5 1  1.420134108305e+02   2.273365056492e+01   2.095660533828e+02 
6 1  7.091413056515e+01   6.695285595303e+01   8.824300886117e+01 
7 1 -1.953037932617e+02  -1.826856267318e+02  -3.232431635848e+02 
8 1 -1.532498169981e+02   1.616723092853e+02  -8.067425250308e+01 
8
Step 13000
1 1  3.692826021408e+02   3.577741602506e+02  -2.698555883975e+02 
2 1  5.359004802814e+01   4.144724593954e-01  -4.126994534488e+01 
3 1 -3.999204865866e+02   2.477701752600e+02   1.571622704297e+02 
4 1  3.912897756766e+02   3.665366141183e+01  -4.155140940638e+01 
5 1  3.150786658494e+02   8.118678589389e+01   2.876317043994e+01 
6 1 -1.996944350605e+02   1.929274291808e+02   5.781586408138e+01 
7 1 -2.294581143323e+02  -9.569302238948e+01  -2.115417621925e+02 
8 1 -1.003690120483e+02  -1.279654083076e+01  -6.341078580501e+01 
8
Step 14000
1 1 -7.979611965710e+01   1.101206235708e+02  -9.933544713151e+01 
2 1  7.633954732428e+01   9.089478073904e+01  -5.552799120376e+02 
3 1 -1.943829331507e+02   3.085201989253e+02  -2.572705482881e+02 
4 1 -7.703842221197e+01  -3.514817788237e+01  -5.884225964793e+02 
5 1  4.019252361336e+02  -2.763277690966e+02   2.180097650895e+02 
6 1 -1.507287046714e+02  -2.039013502919e+02   3.070779109277e+02 
7 1 -1.713345535822e+01  -8.296966596684e+01   2.330899079910e+01 
8 1 -1.609051114038e+02  -3.107014283874e+01   2.290003202386e+02 
8
Step 15000
1 1  2.954265558348e+02  -2.692664396706e+02   2.316642386594e+02 
2 1  2.556712609168e+02  -6.950104501388e+02   9.106045187927e+01 
3 1 -1.733707999898e+02   5.770118901294e+02  -3.201381722892e+02 
4 1 -3.058949479848e+02   1.602258120793e+02  -5.980021724549e+02 
5 1 -2.714840311000e+02   2.538187148122e+02   1.224314899078e+01 
6 1  1.885619527053e+02   6.545215425211e+01   5.069010488983e+02 
7 1 -3.192395608024e+02  -4.112130479371e+01  -3.077750729538e+02 
8 1  1.542254424201e+02   7.669872626860e+01   9.459883744677e+01 
8
Step 16000
1 1  2.778386928970e+02  -1.882098331393e+02   3.245505924103e+02 
2 1  1.166472290930e+01   6.640198420285e+01  -3.526906143682e+02 
3 1 -5.387373792651e+02   3.625861354365e+02  -1.841170692718e+02 
4 1  1.188293752291e+02   1.610450654948e+02  -2.505815107419e+02 
5 1  2.533808979297e+02   5.126023045930e+02   2.602614388070e+02 
6 1 -9.129709984478e+01   2.455977454708e+02   3.597605910446e+02 
7 1 -3.867446381263e+01   8.752001701998e+01  -4.212469069610e+02 
8 1 -1.523365362255e+02  -3.691162604958e+02   5.432208621034e+01 
8
Step 17000
1 1  1.026248433759e+01   2.045562412894e+02   1.314454238919e+01 
2 1  6.391896537295e+01   1.360872522069e+02   3.063659589483e+02 
3 1 -2.736871729520e+02  -3.704029437225e+01   2.996867119030e+01 
4 1  3.293644202277e+02   1.060792630421e+02  -5.000735358459e+02 
5 1 -3.461812986762e+02   2.141483855245e+02   3.207937242569e+02 
6 1 -4.233729612700e+02   4.676983283005e+01   1.778158423740e+02 
7 1  1.557340150735e+02  -6.096196319083e+01  -9.543236856801e+01 
8 1 -1.442724758237e+02   5.839074730294e+02   7.722372189718e+01 
8
Step 18000
1 1 -2.466333145235e+02   4.080528538258e+02   2.739215721427e+02 
2 1  7.939175277923e+01   4.493540338481e+02  -2.411642830096e+02 
3 1 -7.463581943023e+02   1.184372340279e+02  -5.868679783309e+02 
4 1  1.823546777840e+02  -2.681723881221e+02  -3.763685888484e+02 
5 1 -2.799349201999e+02  -1.109617569027e+02   1.635555655207e+02 
6 1  2.116868554972e+02   2.142335980693e+02   5.852183591545e+02 
7 1 -2.462968017697e+02  -2.294041561259e+01   8.431446599019e+01 
8 1 -1.877269865771e+02   1.349872772599e+02   3.828269339370e+02 
8
Step 19000
1 1 -2.985123989584e+01   3.235206612969e-01   3.188933349212e+02 
2 1  1.379948611658e+02   2.184404935529e+01   2.830412086157e+02 
3 1 -4.323436226406e+02   2.341331462122e+02  -1.222402899497e+02 
4 1 -2.554530360497e+02   2.121544223472e+02  -5.261723292093e+02 
5 1  2.872826586995e+02   2.483671138889e+01   4.071269721323e+02 
6 1 -3.137733310131e+02   3.150942553981e+02   2.623481703603e+02 
7 1 -3.053208325527e+01   2.796465080275e+02  -6.696458089796e+01 
8 1 -5.127161467600e+01  -6.737452257993e+01   3.076960862562e+02 
8
Step 20000
1 1  9.348405130619e+00  -2.844201104508e+02   2.689097852764e+02 
2 1 -4.950836555771e+02   2.824065193959e+01   4.390232379026e+01 
3 1 -2.570750653709e+02   2.232694410571e+02  -2.642562060526e+02 
4 1 -3.105146266583e+02   2.403588827876e+02  -4.071233618779e+02 
5 1  4.243177272279e+01  -5.579950936703e+00   3.505114565674e+00 
6 1 -1.434198299664e+02   2.715392784208e+02   3.160541310109e+02 
7 1 -9.882391130119e+01  -1.501284146232e+02   1.936401076841e+02 
8 1 -1.214509798758e+02  -1.892601377077e+02   2.721003866526e+02 
8
Step 21000
1 1 -2.670334301689e+02   3.724558699249e+02   5.846665019681e+02 
2 1  1.518212260668e+02  -2.331840701952e+02   1.167425975789e+02 
3 1 -1.118913187545e+02   2.378371248083e+02   3.141868398927e+00 
4 1 -1.304020450988e+02  -3.471693822581e+01   1.743713027333e+02 
5 1 -3.249687926530e+02   4.577411772067e+02   3.121777151922e+00 
6 1 -2.007114184493e+02   4.149450175069e+02   2.410249978338e+02 
7 1 -6.109741854625e+01   3.881291056392e+02  -2.801674449812e+02 
8 1  3.714202689760e+02   1.802168153838e+02   9.928352347527e+01 
8
Step 22000
1 1 -1.668218564004e+02   4.889144872599e+02   2.822854822877e+02 
2 1 -1.137662151894e+02   3.120755162300e+02   2.162106280190e+02 
3 1 -2.817705337170e+02  -9.178243740943e+01  -5.082053670689e+02 
4 1 -4.774332093262e+02  -1.443543945370e+02  -2.147779589472e+02 
5 1  4.724710102213e+01   2.440501064439e+01   1.567114537803e+02 
6 1 -2.831969462633e+02  -1.066476565325e+02   3.755091354553e+02 
7 1  8.279161487258e+01   2.576108153531e+02   2.305319795192e+02 
8 1 -1.264421193622e+02   3.125939347874e+02   3.427232150187e+02 
8
Step 23000
1 1 -1.928071978571e+00   1.322460861694e+00   3.469329624012e+02 
2 1  1.071935173772e+02   4.441112545324e+02   9.181950644587e+01 
3 1 -4.534852802201e+02  -3.638562719668e+02  -2.070396919684e+02 
4 1  1.609036590258e+02  -1.545012364731e+02  -1.112964784322e+02 
5 1 -1.161382636937e+02   1.628988776835e+02   1.329171099157e+01 
6 1 -3.112999252398e+02   2.143866290362e+02   3.525977838538e+02 
7 1  1.953836327414e+02   6.269302295053e+01   3.207995112095e+01 
8 1 -2.375272027018e+02   1.044878626745e+02   4.602813460250e+02 
8
Step 24000
1 1 -4.389516725487e+02  -1.334916377424e+02   2.383106344646e+02 
2 1 -4.136767444498e+02   2.463968387283e+02   1.547012013545e+02 
3 1 -2.227920421685e+02   3.020914822667e+01   1.331481673882e+02 
4 1  1.079098990841e+02   7.604449593523e+01  -7.599018348057e+01 
5 1 -5.938272458051e+01   2.239315695827e+02  -5.457226305573e+01 
6 1 -1.795723716062e+02   3.295839580839e+01  -8.183582805941e+01 
7 1 -9.800529183543e+01  -1.851357354383e+02   1.984215119671e+02 
8 1  1.176628880814e+02  -2.165307283715e+02   6.081272186001e+02 
8
Step 25000
1 1  1.397581482212e+00  -5.259322964469e+01   3.227153758050e+02 
2 1  1.186825791143e+02   9.232452165335e+00   4.922314477197e+02 
3 1  1.616345808138e+02  -2.272363641467e+02  -1.622010463532e+02 
4 1 -6.066227098340e+02   5.062717644787e+02  -1.874663146733e+02 
5 1  2.569070608692e+02  -1.795868868894e+02   2.973900123456e+02 
6 1 -1.968982517787e+02   2.957538083335e+02  -6.782187585561e+01 
7 1  2.260088940467e+02   3.592863742480e+02  -9.395113891653e+01 
8 1  3.065512305278e+02   1.849970724030e+02   1.454630488322e+02 
8
Step 26000
1 1 -1.748805328180e+02   4.649760385030e+02   5.012813450024e+02 
2 1 -1.392106708875e+02   7.910476656936e+00   6.173169282397e+00 
3 1 -1.335074319414e+02  -2.239288830320e+02   1.338730099376e+01 
4 1 -3.600439239397e+02  -8.775354085722e+01  -3.989702841234e+01 
5 1  2.716150162686e+00  -1.407230023522e+02  -4.973061613208e+01 
6 1 -2.920270649985e+02   2.456528663957e+02   1.526536556568e+01 
7 1 -1.941524599250e+02  -5.928092862480e+00   1.121232799938e+02 
8 1  1.832894042011e+02   1.357666391486e+02   1.888867602702e+02 
8
Step 27000
1 1 -2.000629346043e+02   3.895636593439e+02   1.632315473706e+02 
2 1 -8.397406728232e+01   2.349399923511e+01   2.064751130806e+02 
3 1  4.545342486577e+02  -2.959196732940e+02   1.916686594371e+01 
4 1 -5.097725051029e+01   2.884180162155e+01   4.761138900394e+00 
5 1  2.396746308953e+02   2.417680925677e+02   1.827830057635e+02 
6 1 -7.248956612896e+01   6.632523944649e+01   6.057932950205e+01 
7 1 -1.584733053567e+02  -9.551935672242e+01   4.587219096464e+00 
8 1  4.648472789014e+02   4.340030541981e+02   4.323608168113e+02 
8
Step 28000
1 1 -3.012367554386e+02   3.041937535833e+01   1.069080510851e+02 
2 1 -3.387706682467e+02   2.063163325110e+01   4.625559863891e+01 
3 1  1.419083198052e+02  -8.497843241836e+01  -1.311144327864e+02 
4 1 -2.448251742213e+02  -1.667786643368e+02   2.340377728391e+02 
5 1 -6.858174128813e+01  -1.111255590757e+02  -1.406850443230e+02 
6 1 -3.285214187511e+02  -3.950285676687e+02   1.251609673571e+02 
7 1  7.059313172060e+01  -7.751178984065e+01  -3.174262480014e+02 
8 1  1.198359779889e+02   1.093469294629e+02   5.853608987737e+02 
8
Step 29000
1 1  1.483165255027e+00  -2.676765608984e+02   3.483843920407e+02 
2 1  1.404445334965e+02   3.562450147243e+02   3.162203448040e+02 
3 1 -1.119329153432e+02  -4.837234921997e+02   1.736251397466e+02 
4 1 -3.673411709479e+01  -1.863022419560e+02  -5.205646526735e+01 
5 1  2.388976614321e+02   2.560438541039e+02  -2.552903474940e+01 
6 1  2.901059075326e+01  -7.656641520263e+01  -1.487428152670e+02 
7 1  1.541028036964e+02   1.186024624977e+02  -3.324888398830e+02 
8 1  1.766862892362e+02   2.236476345299e+02   1.097571162931e+02 
8
Step 30000
1 1  2.948052907900e+02   7.333242156526e+01   6.451481953920e+01 
2 1 -5.053844279620e+02   1.594369932054e+02   4.396652089301e+02 
3 1  2.416881210369e+02  -2.838107877217e+02   1.524265792527e+02 
4 1 -1.090898847881e+02  -8.511957123353e+01  -8.232818877805e+01 
5 1 -1.773478347429e+02   1.847163741148e+02  -2.624452888615e+01 
6 1 -1.927603825318e+02  -1.609508027611e+01  -1.768639757771e+02 
7 1  1.833144538932e+02  -9.304754268248e-01  -3.860316869164e+02 
8 1  2.856666706527e+02   2.434580938153e+02   3.665602698997e+02 
8
Step 31000
1 1 -6.118541612199e+01   1.934064195414e+02   1.613372731376e+02 
2 1  1.199879395463e+02  -3.669085429134e+02  -2.329645789640e+02 
3 1  7.685674270374e+02  -2.841316625917e+01   2.460472323840e+02 
4 1 -1.718734001759e+02   6.082679482392e+00   1.232119678863e+02 
5 1  2.187255124761e+02  -1.064446586347e+02  -2.230894711663e+02 
6 1 -1.133078257317e+02  -2.587194241511e+01  -1.796825240636e+02 
7 1  6.793279734190e+01   1.808009831784e+02   9.201420892276e+01 
8 1  2.473961921246e+02  -3.589338649605e+01   1.456476677997e+02 
8
Step 32000
1 1 -3.739648079025e+02   4.795317169778e+02  -2.014606600651e+02 
2 1 -1.155223640258e+02  -1.079557282732e+02   3.059993301292e+02 
3 1  7.017666161479e+01  -3.644131793540e+02  -8.427875908963e+01 
4 1 -2.999169632545e+02   7.243735347503e+01   1.824261986481e+02 
5 1  1.091317882321e+02  -5.022047464405e+02   3.521322976444e+02 
6 1 -4.912987860304e+02  -1.253129228733e+02  -2.925658825863e+02 
7 1  7.459053580696e+01  -3.715596023246e+02  -1.943290974187e+02 
8 1  5.144260942556e+02   7.562391243822e+01   3.076604017840e+02 
8
Step 33000
1 1  3.017291200655e+02  -2.790800122049e+02  -2.133480521085e+02 
2 1 -2.663019124192e+02   7.978910749655e+01   3.407958620020e+01 
3 1  7.225365555155e+02  -3.489913188641e+02   1.193328240354e+02 
4 1 -1.399254754293e+02  -3.395383157160e+02   4.042343596115e+02 
5 1  1.888773011972e+02  -4.670744568155e+02  -3.429586023408e+02 
6 1  1.597988436793e+02   6.760222383753e+00  -3.957170237015e+02 
7 1  9.579373506588e+01  -1.230032452030e+02  -5.255776974134e+01 
8 1  2.340015623417e+02   4.053007522585e+02  -7.100878027720e+01 
8
Step 34000
1 1 -5.372210123234e+01  -1.900068243165e+02  -2.232045885117e+02 
2 1 -1.256437317472e+02   2.807801162749e+01   2.050106138712e+02 
3 1  1.822482223639e+02  -2.845348579287e+02   7.320930046994e+01 
4 1 -2.277910451209e+02  -9.846804743858e+01   2.767202967409e+02 
5 1  1.652638715117e+02  -1.689544715483e+02  -4.816743276159e+02 
6 1 -3.961865046571e+02  -1.397301587167e+01  -5.885209485794e+02 
7 1  1.655763937853e+02  -2.023194069578e+02  -3.670532239565e+02 
8 1  2.634552577410e+02  -2.530421337715e+02   4.025867264964e+01 
8
Step 35000
1 1 -9.267798676973e+01  -4.098342688370e+02  -4.548602660055e+02 
2 1  2.845811777178e+02   1.958444201800e+01   4.872763997821e+02 
3 1  5.499884704254e+02  -2.996785795773e+02  -3.221488441296e+01 
4 1  7.472182710378e+01   3.439930091653e+02   5.049650869748e+02 
5 1  3.931664480495e+02   7.377735420368e+01  -3.300427688736e+02 
6 1 -2.420185885401e+02   1.724820286635e+02  -3.829061144714e+02 
7 1  2.968446365047e+02  -5.653601229568e+01  -5.539840149442e+02 
8 1  1.814999944522e+02   7.437112333010e+00   3.692619675886e+02 
8
Step 36000
1 1  1.321370106450e+02   1.532466037246e+00  -3.413984846670e+02 
2 1 -3.778794084709e+02   8.067814286030e+01  -4.320004668907e+02 
3 1  4.713272895723e+02  -1.032800801131e+02   1.548226037767e+02 
4 1 -2.986297143810e+02  -2.019574621485e+02   3.934058111728e+02 
5 1 -2.892488804120e+02  -1.737413077572e+02  -2.282174379479e+02 
6 1  8.061229799040e+01  -5.094450738962e+02  -5.991765847363e+00 
7 1  3.511369427797e+02  -2.560938368319e+01   1.502112008174e+02 
8 1  3.782811896829e+02  -5.110587843767e+01  -3.140802638659e+02 
8
Step 37000
1 1  8.297072480540e+00   1.030885560609e+02  -4.649151373537e+02 
2 1 -2.421250385385e+02  -4.379811504139e+02  -1.912190600879e+02 
3 1  4.458698145925e+02  -3.930997935724e+02   3.354408278572e+00 
4 1  6.358113911184e+01  -5.959605308896e+02   5.906119205411e+02 
5 1  3.966687637272e+02  -8.510484869438e+01  -1.358385560895e+02 
6 1 -5.548453476301e+02  -3.945755975594e+01  -3.348617604935e+02 
7 1  1.048778019277e+02  -7.678408345919e+01  -5.959358043802e+02 
8 1  1.631248321861e+02  -2.262918432630e+02   1.846538736727e+02 
8
Step 38000
1 1 -5.905806749379e+01  -1.547368368149e+02  -2.713957509298e+02 
2 1 -1.963563476587e+02  -3.663886314439e+02   1.206637486500e+01 
3 1  3.938995019904e+02   4.207910557003e+01   1.317619689970e+02 
4 1 -2.661992793824e+02   3.861776006592e+02   5.189356619956e+01 
5 1  2.745151989398e+02  -1.797733724411e+02  -2.647894164404e+02 
6 1 -6.810111779630e+01  -3.587821894122e+02  -4.478993074859e+02 
7 1 -1.211669190168e+02  -2.700993795341e+02  -1.905158809891e+02 
8 1  2.574643029484e+02   2.330363987774e+01  -1.092971887253e+02 
8
Step 39000
1 1  1.891467871266e+02  -8.188459210232e+02  -4.413330617707e+02 
2 1  1.033323463679e+02   3.626909833119e+02  -8.702432363782e+01 
3 1  2.584024257134e+02   1.582622901051e-01   1.769011196644e+02 
4 1  2.924656981939e+02  -2.086137245139e+01   2.655637710823e+02 
5 1  2.399634902309e+02   2.404542757302e+02  -1.294131017829e+02 
6 1 -3.300494472219e+01  -5.950493336467e+01  -6.393952288962e+02 
7 1 -2.123355327825e+02  -1.544086924133e+02  -4.225937712170e+02 
8 1  2.999925063335e+02  -1.138706508958e+02  -1.466897140279e+02 
8
Step 40000
1 1  3.820532338945e+02  -1.352259300441e+02  -3.514485786722e+02 
2 1 -8.083653447692e+02   2.822330004006e+02  -4.576579660456e+01 
3 1  3.151903755308e+02  -3.876217082891e+01  -1.555622844986e+02 
4 1 -2.686290426311e+02   6.774290962627e+00   4.319667988328e+02 
5 1  2.914808010805e+02   2.753093192921e+02  -1.874565485208e+01 
6 1 -2.757682901674e+02  -1.088689416216e+02  -5.110806927734e+01 
7 1  2.600028598388e+02  -4.604918516693e+02  -5.684315195186e+02 
8 1  1.029326264310e+02   2.343605797776e+01   4.296699381147e+01 
8
Step 41000
1 1 -2.097737120101e+02   1.107208255242e+02  -5.415575284753e+02 
2 1  6.597901726143e+01  -2.460410358298e+01  -2.909512026446e+02 
3 1  2.676378361451e+02  -3.357305338439e+02  -1.455502545619e+01 
4 1  9.258627737917e+01   2.224212185980e+02   5.177280855792e+02 
5 1  2.273831965499e+02  -3.132678102041e+02   2.439107565400e+02 
6 1 -1.403826938166e+02  -2.671200963304e+01  -2.087691103348e+02 
7 1 -1.947262932466e+01   2.302401603898e+02  -2.182322041611e+02 
8 1  4.275690105417e+01  -1.205413066193e+01   2.006198999799e+02 
8
Step 42000
1 1 -7.167221342144e+00   1.839022476267e+02  -2.738325378360e+01 
2 1 -3.548626935694e+02  -2.925404756254e+02  -3.959231826550e+02 
3 1  1.266988738752e+02  -1.088904251363e+02  -3.386168689061e+02 
4 1  1.291261538259e+02   9.520729320488e+01   2.160703977179e+02 
5 1  1.251351471429e+02  -6.878849901083e+01  -3.313906206480e+02 
6 1 -5.142078268271e+02  -2.815338366250e+02  -7.705168628355e+01 
7 1  1.327802517815e+02  -2.540785586788e+02  -2.034164925499e+02 
8 1 -1.237836285757e+02  -2.897505230858e+02  -1.032444362372e+01 
8
Step 43000
1 1  3.742205097656e+02  -7.983794939909e+01   4.819167809904e+01 
2 1 -6.403863090171e+02  -1.217553602430e+02  -2.907091917823e+02 
3 1  5.675030818077e+02   3.540810048190e+02  -9.312117372712e+00 
4 1 -1.825313339393e+02   3.225533174260e+02   2.979866953138e+02 
5 1  5.498207359996e+02  -1.539180174613e+01  -2.752456776693e+02 
6 1 -1.787450141369e+02  -3.730576839969e+02  -1.079121679441e+02 
7 1 -1.247558740570e+01   1.708549834034e+02  -3.163408558704e+02 
8 1 -1.103317578543e+02   1.175634751572e+02  -1.981864575976e+02 
8
Step 44000
1 1  3.554478994560e+02   7.757236047440e+01  -2.502239806569e+02 
2 1  2.205381588255e+02   7.846011353921e+01  -1.554959579616e+02 
3 1 -2.822276593648e+02   4.214780548289e+02  -1.868345599034e+01 
4 1 -1.204072308732e+02   3.051229508944e+02   2.683268807439e+02 
5 1  3.482588382635e+02  -3.461269777174e+02  -3.968732761584e+01 
6 1 -9.628296669257e+00   1.352535589166e+02  -1.314962204763e+02 
7 1 -8.727213111437e+01   2.057183410564e+02  -1.359323794672e+02 
8 1  2.337940678552e+01  -1.783445014307e+02   5.777054909759e+01 
8
Step 45000
1 1 -1.538994683698e+02   2.300382929839e+01  -6.958727982224e+02 
2 1 -3.122700726650e+02   2.281267417716e+01   5.942280323852e+01 
3 1  4.227444937832e+01  -5.824646155394e+01  -4.512876089441e+01 
4 1 -1.145001424440e+02   1.893081470995e+02   6.651426788344e+01 
5 1  2.205109396913e+02  -5.514891713746e+01   1.259400949199e+02 
6 1 -2.654430904590e+02  -2.196199216792e+02  -1.369154032689e+02 
7 1 -1.591659987291e+02   5.278081845634e-01   2.522237569539e+02 
8 1  1.313966601410e+02   9.883149164104e+01   7.856748297599e+01 
8
Step 46000
1 1 -1.430231929641e+02  -6.505445598998e+01   1.570314020469e+02 
2 1 -4.815978319523e+02   3.226840454419e+02  -5.212403305771e+02 
3 1  6.050385168014e+02   5.136173145476e+01   1.858167913911e+02 
4 1 -2.385784411957e+02  -6.409044870391e+01   6.442532258209e+01 
5 1  3.000908951695e+02   1.647128190418e+02  -2.576391204753e+02 
6 1  1.484532858283e+02  -7.298454681876e+01   4.772577910761e+01 
7 1 -3.234680932241e+02   1.045831917804e+02   1.743733508734e+02 
8 1 -3.338219948274e+02   2.624509454781e+01   2.100799381540e+02 
8
Step 47000
1 1  7.183234701460e+01   4.732928203418e+02  -5.890833610303e+01 
2 1  5.604630430620e+01  -8.355654766867e+01  -1.097502316738e+02 
3 1 -1.031016306191e+02   1.149437863335e+02  -3.881124559741e+02 
4 1  1.149205692681e+02   3.325851101795e+02  -1.507023220955e+02 
5 1 -2.335179297352e+02  -3.191093877307e+02  -1.779131594332e+02 
6 1 -3.228149313336e+02  -1.772860937677e+02   6.846737953430e+01 
7 1  8.146907615902e+01  -2.486194064145e+02   1.707886025870e+02 
8 1 -1.853791291210e+02   8.780524946002e+01   7.098232993903e+01 
8
Step 48000
1 1  5.520182926208e+01   4.605826989832e+02   2.353356173877e+02 
2 1  2.336854772136e+02  -1.210747935234e+02   3.230077346683e+01 
3 1 -3.429728815546e+00   3.195214753538e+02  -9.064325916838e+01 
4 1  8.679210132304e+01   3.083728047517e+02   1.221392002999e+02 
5 1  2.126679879668e+02   1.047224491078e+02  -1.484019362541e+02 
6 1 -1.634786356565e+00  -1.973037756419e+02  -2.526599811715e+02 
7 1 -1.319444992037e+02   3.305102434694e+02  -1.832166761982e+02 
8 1 -3.406997493140e+02  -1.278774883636e+02   9.835443299968e+01 
8
Step 49000
1 1  2.785937620122e+01   1.677815911163e+02   3.970962327344e+01 
2 1 -4.378847005520e+02   1.523480719424e+02  -5.302617387920e+02 
3 1  2.696919963904e+02   5.882717453103e+02   1.369927395767e+02 
4 1  3.034816038044e+01   2.504761630434e+02   2.172274763711e+02 
5 1  7.842207827902e+01   2.923422135920e+02  -4.757276565677e+02 
6 1 -1.313943003319e+02  -3.743645098244e+02   1.000878091218e+03 
7 1  1.093578862993e+02   1.996880508129e+02   2.592053477027e+02 
8 1 -2.168284741090e+02   2.623397253760e+02   1.840613110190e+02 
8
Step 50000
1 1 -1.758118297490e+02   1.910049510679e+02  -3.613855335658e+01 
2 1 -7.102184457687e+01  -1.389701279950e+02   8.981240442742e+01 
3 1 -2.530966300331e+02   2.909021109644e+02  -3.072183376719e+02 
4 1  2.230350543098e+02   8.516264628866e+01   2.198184987494e+01 
5 1  2.660033312492e+02  -3.181107653685e+01  -1.678062661127e+02 
6 1 -2.452504381016e+02   2.566323098267e+02  -2.772567108208e+01 
7 1  1.687722567031e+00  -7.081740060832e+01   2.725327313909e+02 
8 1 -3.131128501928e+02  -9.379644270855e+01   5.295713540163e+02 
8
Step 51000
1 1 -1.486266480947e+02   2.682926401451e+02   2.570692763930e+02 
2 1 -1.146013637941e+02   3.661579337918e+02  -7.240998927486e+01 
3 1  1.694097443820e+02   1.165472184021e+02  -1.503374465242e+02 
4 1 -1.787093604792e+02  -8.551695932384e+01  -1.552590312116e+02 
5 1  1.116513685636e+02   1.172429612920e+02  -1.395244643081e+01 
6 1 -1.321730918373e+02  -6.922303836660e+01   1.893828397210e+02 
7 1 -2.883141262918e+02  -4.577366086194e+01   5.061490814620e+01 
8 1 -4.739249243977e+02  -2.506703068711e+02   1.376534373611e+02 
8
Step 52000
1 1  2.353824725274e+02   5.034495050636e+02   4.557491797468e+02 
2 1 -5.121746841253e+01   4.529304678233e+02  -1.738240828657e+01 
3 1  4.956958834267e+02  -8.746388380094e+01  -2.667283950160e+02 
4 1 -9.695388168387e+00   9.695893152352e+01   6.185276539413e+01 
5 1  2.842670127648e+02   2.042483687405e+02  -2.459476293358e+02 
6 1 -2.680288446955e+02   2.296779079843e+02   2.761170916458e+02 
7 1  2.566437114773e+02  -1.479835650681e+02   1.818493280929e+02 
8 1 -1.814025052825e+02   1.862726454200e+02   9.406260383137e+01 
8
Step 53000
1 1 -8.483221166434e+01   6.518840758741e+01   2.680871268784e+02 
2 1 -2.204733245709e+02  -1.659758784393e+02  -5.408490779197e+00 
3 1  1.692286381251e+02   1.319431192674e+02  -4.122613573232e+02 
4 1  3.826977970279e+02   4.066659941677e+02  -1.544920595250e+02 
5 1 -1.020145242675e+01   5.624535041941e+01   2.320168330071e+01 
6 1 -1.039850681965e+02   1.857022021158e+02   2.681525736604e+02 
7 1  7.886996105863e+01  -3.452563229185e+01   1.356088648740e+02 
8 1 -3.753197769957e+02   1.012486436770e+02   2.173000467843e+02 
8
Step 54000
1 1 -2.230552664408e+02   4.381512861116e+01   4.064809343558e+02 
2 1  8.122104225937e+01  -1.968345112594e+02   1.524550803761e+02 
3 1 -1.921244837389e+02   3.351320231401e+02  -2.701652452477e+02 
4 1  8.007022131720e+01   4.511510670786e+02  -1.895141533659e+02 
5 1  4.261483392307e+02   2.690557650904e+00   4.299222633713e+01 