8
Step 0
1 1  3.925936639999e+02  -1.543008928071e+02  -1.440228048609e+02 
2 1 -3.379341087660e+02  -3.925505874471e+02   3.683521818855e+02 
3 1 -3.424884316572e+02  -2.182720383758e+02   4.091092859017e+02 
4 1 -2.495589300526e+02  -4.683427121431e+01   3.142915232886e+02 
5 1  3.184003193496e+02  -2.363421945060e+02   2.760046204839e+02 
6 1  6.480739281491e+02   6.885028007930e+02  -2.003080180061e+02 
7 1  1.705097250055e+01  -3.196006587446e+02  -1.875622399230e+01 
8 1 -1.126140154026e+02  -3.910938041795e+02   4.674400516380e+02 
8
Step 1000
1 1 -3.298831112216e+02   2.776054103586e+02  -2.137197101005e+02 
2 1 -1.938170846373e+01   8.331665190882e+00   7.197032465462e+02 
3 1  1.567736317147e+02  -4.462062827758e+01   3.082405912148e+02 
4 1  5.119337091220e+01   1.868481396548e+02  -1.456757308961e+02 
5 1  1.006182183907e+02  -3.329434284460e+01   2.556341138605e+02 
6 1  8.467335870410e+01   1.071413247649e+02   5.001199168511e+01 
7 1  1.351558427514e+02   1.629409926160e+02  -1.941578181998e+01 
8 1  6.845410396970e+01   2.923201823764e+02   5.866020308765e+02 
8
Step 2000
1 1 -1.288638645782e+02   1.608153648333e+02  -1.739531643529e+02 
2 1 -2.816952863764e+02   2.424161686954e+02   3.561812344229e+02 
3 1  3.073917083625e+02  -5.379414369847e+02   1.474197503715e+02 
4 1  6.541427653533e+01   1.993675637587e+02   1.749131989584e+00 
5 1  3.421228116928e+02  -4.365162627117e+02   4.569706279364e+02 
6 1 -2.681988618905e+02   4.993178010399e+02   1.116885617136e+02 
7 1  2.339165745210e+02  -4.763459997639e+02   3.356833878643e+01 
8 1 -2.060772919534e+02  -3.707499232509e+01   3.919310821475e+02 
8
Step 3000
1 1 -2.408446053409e+02  -1.980656341425e+02   3.405215679550e+02 
2 1  6.875710253854e+01  -1.155413921807e+02   8.530993926832e+01 
3 1  1.220861366634e+01  -3.943929071048e+02  -1.982358952266e+02 
4 1  2.082891406495e+00   5.239298396946e+02   1.419608133931e+02 
5 1  3.368378718274e+02  -8.004609793502e+01   2.153436838229e+02 
6 1  2.507595180760e+02   3.147420391514e+01   3.700130190346e+02 
7 1  3.054869462931e+02  -3.298921168339e+02   7.126158123505e+01 
8 1  8.597777977032e+01  -2.157051051197e+02   1.398515652688e+02 
8
Step 4000
1 1  1.505837801326e+02  -4.643471029958e+02  -2.564515175824e+02 
2 1  1.746787326733e+01  -3.121386162513e+02   7.085393328375e+02 
3 1  1.543523316308e+02  -4.087884996842e+02   1.044661341756e+02 
4 1 -1.371009167699e+02  -2.202501665724e+02  -2.943165622508e+02 
5 1  1.931778018652e+02  -1.268168405882e+02   1.511145922510e+02 
6 1  6.614150698625e+01  -4.023630050026e+02   1.520484381339e+02 
7 1  1.639357252117e+02  -7.796521126387e+01   2.197084008991e+02 
8 1  1.617526629245e+02  -1.405567119811e+02   3.277747992008e+02 
8
Step 5000
1 1  3.388244484388e+02  -1.189673265128e+02   4.865929434381e+02 
2 1  6.941727897953e+00  -6.648847306952e+01  -4.655175687783e+01 
3 1  1.632669776232e+02  -2.453373978643e+02   2.497741485329e+02 
4 1  3.090988451635e+02  -1.082685796657e+01  -6.988306072805e-01 
5 1  3.576300451850e+02  -2.761266172880e+02   1.181335952943e+02 
6 1  4.294813471509e+02  -4.356131178029e+01   1.535720107835e+00 
7 1 -8.404515255184e+01   1.184762177978e+02   1.813637769621e+02 
8 1  1.674211668968e+02   2.643194654074e+02   8.065852833275e+01 
8
Step 6000
1 1 -1.439192568510e+02   3.768777743431e+02  -4.461760301546e+01 
2 1  1.986085309499e+02  -4.035046855728e+02  -1.298227138853e+02 
3 1  2.543363720436e+02  -9.791916473458e+01   3.714758742690e+02 
4 1  4.033127969771e+02  -5.655839107970e+02  -3.235533047312e+02 
5 1 -2.064847779003e+02  -5.121750075559e+01   4.044239805771e+02 
6 1  1.799621580124e+02  -8.568270837450e+02   5.237504130488e+02 
7 1 -1.301962733491e+02   1.717884386375e+02   2.882506623465e+02 
8 1 -2.544718362946e+02  -2.740905197600e+02  -3.889101488083e+01 
8
Step 7000
1 1 -1.950382625441e+02  -1.602112914297e+00   3.126917184087e+02 
2 1  1.864562901822e+02  -1.241153760290e+02  -1.109142686977e+02 
3 1  2.001610708733e+02   5.916907859597e+01   3.300163849697e+02 
4 1  5.286927919387e+02  -1.797146281250e+02  -7.625905228199e+02 
5 1  2.087792413465e+02  -2.158688614091e+02   6.670756059519e+02 
6 1  4.512251605194e+02  -1.912388935927e+02   1.163654015492e+02 
7 1 -7.936443809770e+01  -2.175998738065e+02   1.666644286019e+02 
8 1  1.209315681813e+01  -1.504560592538e+02  -6.555356959055e+01 
8
Step 8000
1 1  3.553769494128e+02  -3.842127633776e+02   1.327831048323e+02 
2 1  2.188790552216e+02  -1.986634066634e+02  -1.219146459626e+02 
3 1  3.519063784035e+01  -4.654540930783e+02   3.551301251076e+02 
4 1  2.880834651131e+02   1.987119954974e+02  -3.565525221449e+02 
5 1 -4.124247062276e+02  -3.094293793535e+02   2.593695310538e+02 
6 1  7.013440232203e+01  -4.194704596455e+02   2.098592392723e+02 
7 1 -2.198910574447e+01  -3.582603934322e+02   9.803210878943e+01 
8 1  3.190778153451e+02  -4.444682177529e+02   1.700537453547e+02 
8
Step 9000
1 1  3.165887758815e+02  -4.079829356838e+02   8.426367642669e+01 
2 1  4.010234099517e+02  -2.982904546512e+01   2.109066016773e+02 
3 1  2.891827693705e+02  -2.561322088010e+02  -7.391691930474e+01 
4 1  2.585735148801e+02  -1.537699644063e+01  -1.006586699785e+03 
5 1 -1.282650866569e+02  -3.428801322277e+02   2.944360423680e+02 
6 1 -1.563401914566e+02  -3.827467441665e+02   1.865241652326e+02 
7 1  2.048702822342e+02  -1.406732987493e+02   2.419816130396e+01 
8 1  2.360504339110e+02   1.703943187794e+02   4.859333994231e+01 
8
Step 10000
1 1  4.078117171623e+02   1.273104425696e+02   2.503569333358e+02 
2 1  1.572638754253e+02  -1.992712622904e+02  -1.149277422829e+01 
3 1  3.095901521419e+02  -4.636154644069e+02  -1.267156280749e+02 
4 1 -1.083596367557e+02   3.958841373422e+02  -2.510051947728e+02 
5 1  1.747787791576e+02  -5.566612790651e+02   4.538573103671e+02 
6 1  3.548299012411e+01   4.729202843902e+00   9.075263452192e+01 
7 1 -2.528118424053e+02  -5.425516285444e+02  -1.256425192436e+02 
8 1 -3.154925364451e+02   1.631937430643e+02  -1.323253167097e+02 
8
Step 11000
1 1  1.948905344610e+02   3.892415434883e+02  -2.195895307803e+02 
2 1  1.416442132405e+02   3.523532325948e+02   1.402595253334e+01 
3 1  3.902482982607e+02  -2.767936612793e+02  -1.894211978250e+02 
4 1  6.092084572552e+01  -1.754601094163e+01  -4.115517146063e+02 
5 1  2.019766529499e+02  -4.772148965000e+02   8.783032941508e+01 
6 1  5.080263875308e+01  -2.562089637185e+02   3.002041036684e+02 
7 1 -1.904252347546e+02  -3.656956124334e+01  -2.774051857484e+02 
8 1 -1.426272030663e+02  -1.082257159981e+02   9.157228058598e+00 
8
Step 12000
1 1  1.607785906767e+02   1.565599740870e+02  -7.854689866305e+01 
2 1 -1.888470183937e+01  -3.257917983481e+02  -8.704652877171e+01 
3 1  4.895531972032e+02  -2.324593112091e+02   3.087289065863e+01 
4 1 -3.558517860697e+02  -5.077128520524e+01  -9.402281529578e+02 
5 1 -2.144848770310e+01  -4.882197775207e+02   3.363715982800e+02 
6 1 -1.471930754866e+02  -5.278863844168e+02   1.955486665910e+02 
7 1  4.555166873634e+01  -4.963100326568e+02  -4.175460434863e+01 
8 1 -2.676746153329e+02   2.445597028804e+02   1.173525055863e+02 
8
Step 13000
1 1  3.128605879680e+02  -1.244646505596e+02   3.964363864809e+02 
2 1  5.986851247402e+02  -2.772240261789e+02  -3.084605498925e+02 
3 1  3.432465372224e+02  -1.253842068826e+02  -4.057650414765e+02 
4 1 -1.230654873213e+02   4.205468024483e+02  -6.281582053482e+02 
5 1 -4.577132759696e+02  -1.427822977345e+02   1.370849173757e+02 
6 1  7.307879288998e+01   1.089920728612e+02   5.441620715501e+01 
7 1  2.500018299300e+02  -1.979020651348e+02  -2.707939081705e+02 
8 1  2.085224649720e+01  -9.165265091211e+01  -2.690709815693e+02 
8
Step 14000
1 1  3.015889110568e+02  -6.979634360710e+01   7.952306403809e+01 
2 1  1.709044583618e+02  -8.056611051048e+01   2.958023134488e+01 
3 1 -2.404043658759e+02  -1.244670544845e+02   8.599171879285e+01 
4 1  1.862427784845e+02   2.171588156278e+01  -8.861003896306e+02 
5 1 -4.156036131978e+02   1.737158708269e+02   4.550931722487e+02 
6 1  1.775464541105e+02  -3.141366850728e+02   2.672265895384e+02 
7 1 -1.307504641610e+02   9.224067842221e+01  -3.877001665147e+02 
8 1 -1.988056579016e+02   9.983401351244e+00  -3.194496559979e+02 
8
Step 15000
1 1  1.810163859020e+02   5.161674623060e+02  -2.794297233677e+02 
2 1  2.186754310649e+02   2.614217634826e+02  -4.031568974002e+02 
3 1 -4.965577276549e+01  -4.497551372192e+02   6.770384035811e+01 
4 1  4.093797407587e+01   1.465271523387e+02  -4.472282964340e+02 
5 1 -1.707140927142e+02  -1.790942947795e+02   2.167387522380e+02 
6 1 -1.329176616457e+02  -1.689567874682e+02  -3.441175419910e+02 
7 1  2.905186525510e+01  -4.341769426472e+01  -8.821730653858e+01 
8 1 -2.493083062503e+02   3.452951854675e+02  -2.300898539190e+02 
8
Step 16000
1 1 -4.200690195104e+01   3.493766849851e+02   2.455086275000e+01 
2 1 -8.274399303036e+00   2.291863996935e+02  -3.441210643542e+02 
3 1 -4.402935790178e+02  -1.131455718741e+02  -2.150344336691e+01 
4 1  2.653308747582e+02  -2.846164563660e+01  -4.937003008571e+02 
5 1 -3.487639690808e+02  -3.368394471233e+02   1.894323537251e+02 
6 1  1.443448287213e+02  -1.338176203145e+02   1.069353350100e+02 
7 1 -1.793586684368e+02   2.978402488034e+02   1.140993134272e+02 
8 1 -1.028491727901e+02   1.084353027598e+02  -2.813653475913e+02 
8
Step 17000
1 1  2.869958032794e+02   1.730588417413e+01  -4.397094780716e+02 
2 1  2.117521403096e+01  -3.129014855468e+02  -3.826976896147e+02 
3 1  1.199570689442e+02   6.889943893357e+01  -1.729838260847e+02 
4 1 -6.541088124776e+02   1.442755216744e+02  -7.145911548340e+02 
5 1 -1.779296758782e+02  -1.208251506393e+02   2.454136313934e+01 
6 1  4.081538938999e+02  -3.159513981477e+02   1.923336464658e+02 
7 1 -2.071213182906e+02   1.591802782020e+02  -1.732737229951e+02 
8 1 -3.036174055352e+01   3.200775039365e+02  -6.037970972001e+01 
8
Step 18000
1 1  1.919132250097e+02  -1.766689280274e+02   9.451574949897e+01 
2 1 -3.047160559971e+02  -2.251200193865e+02  -3.126649959106e+02 
3 1 -1.345818503873e+02  -4.437036640633e+00   1.206105215947e+02 
4 1  2.284688986716e+01   3.237563473361e+02  -1.211990066412e+02 
5 1  8.890489537267e+01  -2.133715671562e-01  -1.007503397137e+02 
6 1 -3.639657781034e+02   4.233619430727e+02  -1.758348115578e+01 
7 1  3.900705764531e+01   2.916141164858e+02  -1.464788102663e+02 
8 1 -4.782372528388e+01   2.493232391903e+02  -4.584139803641e+02 
8
Step 19000
1 1  1.442043572867e+02   3.345314432744e+02  -2.851889617845e+02 
2 1 -9.546926338422e+01   2.057526136067e+00  -4.805215805246e+02 
3 1 -2.417485332571e+02   1.708798986459e+02  -3.988075821707e+01 
4 1  1.002458143409e+02   2.490161807399e+01  -1.159736971992e+02 
5 1 -5.107983633296e+02   2.045881631331e+02   8.840070857917e+01 
6 1 -1.505214823763e+02   1.240694487193e+02   6.419146983308e+01 
7 1  2.037984815586e+02   8.552315728579e+01  -4.037515919540e+02 
8 1 -6.460326655570e+01   8.435653616629e+02  -2.558281585263e+02 
8
Step 20000
1 1 -4.229799085123e+02   4.813770692763e+02  -2.442572318181e+02 
2 1  3.064483587133e+01   1.409056388784e+02  -1.510791341300e+02 
3 1 -6.475471910646e+01  -3.531229947870e+02  -1.982373080361e+02 
4 1 -8.581997930114e+01  -7.192372756467e+01  -2.605494307645e+02 
5 1 -2.132487971932e+02  -3.071072170137e+02   4.516188799152e+01 
6 1 -3.808319610294e+02   4.163375306483e+01   2.089232337518e+02 
7 1 -1.412850148668e+01   2.475577063537e+02  -1.751824824181e+02 
8 1 -1.138683134511e+02   1.232469169410e+03  -3.882652671484e+01 
8
Step 21000
1 1  1.034110585266e+02  -1.154477464674e+02  -1.097123411010e+02 
2 1 -6.060281605802e+01   2.318477893447e+02  -5.158119702373e+02 
3 1 -5.342409218036e+02   4.049250393632e+01  -1.988196512219e+02 
4 1  2.118065314748e+02   1.365039252173e+02  -1.836072357073e+02 
5 1 -4.438349396867e+01  -2.265487307729e+02   2.564579030963e+02 
6 1 -2.315246976593e+02   2.177081238674e+02  -9.473172922748e+01 
7 1  2.379095241499e+02   2.160952563653e+02  -5.167881986897e+01 
8 1 -3.930784964780e+02   3.119951479436e+02   2.759238457146e+01 
8
Step 22000
1 1 -5.685857646579e+02  -6.506544470615e+00  -2.224477495299e+02 
2 1 -1.183637248123e+02  -1.432156844123e+02  -4.979750859974e+01 
3 1  1.127059667888e+02   2.199568228500e+01   3.405212624431e+02 
4 1  9.966864075389e+01   3.133767779240e+02  -1.688761437573e+02 
5 1 -1.171784287921e+02   1.230610430359e+02   2.321428808312e+02 
6 1  8.720376423635e+00   2.148733577620e+02  -2.367502546688e+02 
7 1 -2.193797210058e+02   4.883134141490e+01  -2.469926602005e+02 
8 1  8.923051025156e+01   5.887596065818e+02   1.127942832950e+02 
8
Step 23000
1 1 -4.876064422817e+01  -6.610274232210e+01   1.776486092902e+02 
2 1 -9.655165193889e+01  -2.821103635101e+02  -3.051163254917e+02 
3 1  1.678239201888e+01   1.179107747089e+02  -2.699946087195e+02 
4 1 -3.429151050940e+02   5.243113140458e+02  -1.881441253285e+02 
5 1 -3.487280335908e+02  -2.142030110223e+02   3.108452870119e+02 
6 1 -4.643996767112e+01   1.650719679776e+02  -2.925211597563e+02 
7 1 -5.479643523593e+01   6.104640740053e+02  -8.484836897235e+01 
8 1  1.865441072925e+02   3.210924291184e+02  -1.636681462532e+02 
8
Step 24000
1 1 -5.811927951738e+02   1.018368383185e+03   2.478479442580e+02 
2 1  3.582034323361e+02  -9.110579588114e+01  -2.207427528765e+02 
3 1 -6.957427132611e+01   1.181210578420e+00   2.175052655954e+02 
4 1 -4.270682552172e+01  -1.399349852120e+02   1.599774185625e+02 
5 1 -1.895157437751e+02   4.072922504755e+02   4.466092566268e+02 
6 1  1.175703794883e+02   1.610817221872e+02  -1.095531647043e+02 
7 1 -2.377790311549e+02   6.572004859559e+02  -1.552364547706e+02 
8 1  1.440232984657e+01   8.328965704077e+02  -2.014785520101e+02 
8
Step 25000
1 1 -8.754834217239e+00  -8.791109003923e+01  -9.888505130328e+00 
2 1 -1.124757009351e+02   1.020911520681e+02  -2.261657466122e+02 
3 1 -2.153044022052e+02   9.429603853559e+01  -1.534689085805e+02 
4 1 -8.020778397290e+01   8.652258968975e+01  -2.416821736426e+02 
5 1 -3.621087265225e+02   2.256879656819e+02   1.252859449687e+02 
6 1 -4.755420294404e+01  -3.750677158437e+01   1.010450616555e+01 
7 1 -7.941512150847e+01   5.290964094203e+01   6.249750814024e+01 
8 1  4.481846817478e+00   3.128084227637e+02   3.430068295333e+02 
8
Step 26000
1 1 -2.205574650460e+02   1.880003330281e+02   4.477227178225e+02 
2 1 -1.496212724741e+02   5.750404874234e+01  -3.987740109370e+02 
3 1 -3.793550112883e+02   1.497385361448e+02   2.312302143525e+02 
4 1  2.797238553345e+02  -8.896894411126e+01   4.095440994684e+02 
5 1 -2.660925319294e+02   3.139327959691e+02   1.787102643499e+02 
6 1  3.809555787427e+00   4.023009201695e+01  -1.346209511257e+02 
7 1  6.258512116740e+00   2.510017108257e+02  -3.991860020595e+01 
8 1 -2.451801611338e+02   7.907112004488e+01   4.078356205187e+01 
8
Step 27000
1 1  1.717314527156e+02  -3.232758804679e+02   2.367720932424e+02 
2 1  7.873419594856e+01  -4.318295470606e+01   2.297822362565e+02 
3 1 -5.248196490145e+02   2.202239209553e+02   2.835166317004e+02 
4 1 -3.532433240722e+02   2.737813936181e+02  -6.811280901605e+01 
5 1 -1.943648102122e+02   4.253741587433e+02  -6.774477421189e+01 
6 1 -5.203650437105e+01   2.199130558306e+02  -1.377970191433e+02 
7 1  2.001912813113e+02  -4.505181765738e+01  -2.196044513976e+02 
8 1  9.651012778333e+01   7.930154876198e+01   1.192698677461e+02 
8
Step 28000
1 1  5.154234849331e+02   3.691729306637e+02   4.712466546477e+02 
2 1 -8.749106771776e+01   1.443373874444e+02  -2.000899313799e+02 
3 1 -2.487598035444e+02   2.874799765911e+01   2.152116662951e+02 
4 1 -4.729196098945e+01   1.006460422325e+02   3.007452265256e+02 
5 1 -1.024393232565e+02  -1.993946671662e+02   9.803640005361e+01 
6 1  8.764941236168e+00   5.005285170943e+02  -1.348582259115e+02 
7 1  2.920028061201e+02   2.021597489314e+02   2.400079729205e+02 
8 1 -2.569095756176e+02   3.318821359230e+02  -1.316856376462e+02 
8
Step 29000
1 1  6.146100812143e+01   2.613196092138e+02   3.384733168751e+02 
2 1 -9.073942303974e+01  -4.765554930427e+02  -7.338887255389e+01 
3 1 -3.338268263637e+02   2.529416595413e+02   2.853750690230e+02 
4 1  8.521425341906e+01   2.253395104767e+02   5.032543760541e+02 
5 1 -7.962770972523e+01   3.118411440798e+02  -3.052701025631e+02 
6 1 -1.789937289946e+02   4.171101913728e+02  -2.188524657307e+02 
7 1 -3.568293573605e+01  -4.553505749896e+02   1.968504620416e+02 
8 1  1.533650160569e+02  -2.018084801580e+02   3.205591962653e+02 
8
Step 30000
1 1  4.241312093282e+01   2.641443044207e+02   1.017816898182e+02 
2 1  3.720191827491e+00   6.938249457916e+01   2.606352626728e+02 
3 1 -1.533470590199e+02   2.512185652130e+02   1.889908708971e+01 
4 1  2.675675984212e+00   2.278927798422e+02   5.687856467801e+02 
5 1  1.377991539559e+02  -1.533475471391e+02   1.768156920508e+02 
6 1  7.366449350803e+01   4.715359997466e+01   5.909479662666e+01 
7 1  1.581796878384e+02  -2.022842060072e+02   1.859390836154e+02 
8 1  4.139231410952e+01   2.923248050636e+02   2.836272316677e+02 
8
Step 31000
1 1  2.168012404550e+02  -5.908638578401e+02   3.080604233736e+02 
2 1 -9.769798556582e+01  -8.030083813817e+00  -1.069221042831e+01 
3 1 -6.321583930518e+02   5.696804308163e+00   1.904261142293e+02 
4 1  7.500871161481e+01  -4.703182249576e+00   5.304271418874e+02 
5 1 -2.061465049692e+02   1.604788940982e+02  -4.587866662299e+02 
6 1 -9.311797090299e+01  -1.905386802943e+02  -4.943382991565e+02 
7 1  2.924418791368e+02  -4.519072904799e+02   2.116155756767e+02 
8 1  6.832175997703e+01  -3.450388521682e+02   1.527292274234e+02 
8
Step 32000
1 1  1.652712720365e+02  -7.664451070427e+01   1.220323329862e+02 
2 1  7.228554169298e+01   7.960408311809e+01   6.489315238172e+02 
3 1 -2.264469122334e+02   3.063895268187e+02   3.096209525003e+02 
4 1  3.313787798068e+02  -8.371485055402e+01   5.509332476154e+02 
5 1  9.365051579817e+01   4.362292147906e+02  -1.019103506764e+02 
6 1  1.383944709497e+02   2.185882930336e+02  -3.221102516686e+02 
7 1  1.310980587301e+02  -3.857506134893e+01  -1.210595513367e+02 
8 1  2.537439637214e+02   5.022282167995e+01   2.500695446804e+02 
8
Step 33000
1 1 -1.746979449912e+02  -2.546502625024e+02   1.134897383078e+02 
2 1  1.708233341607e+01  -2.216493054632e+02   2.526497713251e+01 
3 1  2.331142224819e+02  -1.665318696163e+01   2.608896487890e+02 
4 1  2.075092516572e+02   3.583936703918e+02   2.896965387462e+02 
5 1  7.467665465409e+01   5.264289131164e+02  -1.336936880756e+02 
6 1 -2.425198733322e+01  -4.467414832660e+02  -2.965313873900e+02 
7 1  1.809736244877e+02   3.631689171503e+01   2.431722770739e+02 
8 1  3.538275435668e+02  -3.436470515736e+02   4.755315545507e+02 
8
Step 34000
1 1 -2.902898614332e+02   2.873845498006e+02   1.774181047623e+02 
2 1  3.979982940661e+02  -1.680470763297e+02  -2.097094667234e+02 
3 1  2.858898698533e+01   6.406829490404e+01   9.496782600108e+01 
4 1  2.058879032557e+02  -1.044552799589e+02   3.258112183051e+02 
5 1 -1.403932413925e+02   1.822014429480e+00   1.481103849906e+02 
6 1 -6.949647674025e+01  -2.640616893914e+02  -2.621994160677e+02 
7 1  2.133745000293e+02  -8.035427154964e+01   2.829261133091e+02 
8 1  3.515369843922e+02  -2.489316556795e+02   3.630964070997e+02 
8
Step 35000
1 1 -3.824501679383e+02  -1.131886483517e+02  -1.503397893239e+02 
2 1 -5.567931778777e+02  -1.524859044826e+02   1.485816226302e+02 
3 1  2.545480516223e+02  -4.198526659712e+02   1.038424010977e+02 
4 1  3.766040590618e+02  -5.326371110812e+02   3.425982305304e+02 
5 1  2.787563589105e+02  -1.194146964202e+02   6.962129887919e+01 
6 1  1.463529589672e+02  -2.228407791477e+02  -3.658359411255e+02 
7 1 -1.785947478394e+02  -4.133196554883e+02   1.990861320890e+01 
8 1  3.043121451936e+02  -7.502519929160e+01   3.820292297701e+02 
8
Step 36000
1 1 -1.494587642322e+02  -1.680590561422e+02   4.410481888958e+02 
2 1  3.130948019237e+02  -1.974296288873e+02  -2.213735226711e+02 
3 1  4.305559794739e+02  -1.246349912878e+02   2.294506967260e+00 
4 1  1.986140733030e+02   1.439694738403e+02   3.105883638176e+02 
5 1  1.726971960621e+02   2.038686966576e+01  -5.157510292578e+02 
6 1 -1.792784138196e+01  -1.068062327380e+02  -8.777531080610e+02 
7 1  4.116628226513e+02  -8.334587544464e+01   4.480591308024e+01 
8 1  1.848777217099e+02  -3.156678068650e+02   4.509966155168e+02 
8
Step 37000
1 1 -4.134198328201e+02  -5.514340792360e+02  -2.563378647151e+02 
2 1  1.866757517089e+01   1.477422028680e+01   3.554512805521e+02 
3 1 -1.490970261464e+02  -4.531003533111e+02  -2.185361838597e+02 
4 1  5.199346886513e+02  -3.152176616883e+02   2.555851236464e+02 
5 1  3.965296879488e+02  -1.171436115995e+02  -2.275584691404e+02 
6 1 -7.516784469534e+01   3.648633780941e+02  -3.606801430074e+02 
7 1  5.649708172226e+00  -4.276420177299e+02  -2.345878208159e+02 
8 1  1.594454350647e+02  -3.452553243953e+02   2.761589334095e+02 
8
Step 38000
1 1  1.919452167181e+02   2.132397521352e+01   1.441076319024e+02 
2 1 -3.543580092594e+02   1.562282321333e+02   1.331819705559e+00 
3 1  3.904154216682e+02  -1.468702856816e+02  -2.997366398622e+02 
4 1  2.869039171876e+02  -2.695291412516e+02   4.690429987225e+02 
5 1  2.897645839117e+01   2.346878318189e+02  -4.069669896031e+02 
6 1  1.734202582475e+02   1.292403655066e+02  -1.394509945597e+02 
7 1  5.962046443595e+02  -2.234607790005e+02   2.553856579800e+02 
8 1  1.941583914153e+02   1.955108903119e+01   1.016870998527e+02 
8
Step 39000
1 1 -1.574033348672e+02   1.405329187093e+02  -1.702989605301e+02 
2 1 -1.717913748301e+02  -5.739722814356e+02  -3.827404878787e+02 
3 1 -2.008026296412e+02  -5.085878737814e+02  -5.263733682628e+02 
4 1  1.306929305964e+02  -7.535633795086e+02   3.729036234495e+02 
5 1  1.778119559703e+02  -6.630255101410e+02  -2.911009557660e+02 
6 1 -2.962614715180e+02  -3.608402648094e+01   5.197125988211e+01 
7 1  3.249917752434e+02   6.141215517732e+01   4.278938309660e+02 
8 1  6.172965146083e+01  -5.372395409865e+02   8.166123540762e+01 
8
Step 40000
1 1  3.172297163506e+01   9.341058716464e+01   2.878563148813e+01 
2 1  9.374367534852e+01  -4.148799249157e+02   2.448937650253e+02 
3 1 -1.401350976551e+01  -2.835454197019e+02  -3.546988499077e+02 
4 1  2.708009039212e+02  -1.046389281182e+02  -2.968604382606e+02 
5 1  3.964788686273e+02   7.280001298492e+01  -5.473990549589e+02 
6 1  7.039315137216e+01   6.668935703963e+01  -3.434203347984e+02 
7 1 -8.865544880993e+01  -1.638836454243e+02   9.077216937158e+01 
8 1  2.300682302587e+02  -3.082870702570e+02  -7.985159550588e+00 
8
Step 41000
1 1  2.725516981906e+02  -6.220596768273e+02  -9.006841082154e+01 
2 1 -3.250690316982e+02  -1.634860381306e+01  -2.479121191994e+02 
3 1  2.084020434936e+02   1.501695408014e+02  -6.377453025851e+01 
4 1 -2.123678127042e+01  -4.325235693819e+02   6.620391217729e+00 
5 1 -9.985980679908e+01   5.379962939437e+01  -5.590977486456e+02 
6 1  3.426768789628e+02  -4.669380242817e+02  -2.484029442651e+02 
7 1  8.226224819226e+01   3.535261543528e+01   6.293831953019e+02 
8 1  2.208297460055e+01  -3.375426234312e+02  -2.910218129211e+02 
8
Step 42000
1 1  4.194751669125e+02  -2.069817025054e+02  -4.449724025340e+02 
2 1  2.922836240228e+02   1.956254901566e+02   2.538997869138e+02 
3 1 -2.523439368172e+02   5.697700787876e+01  -2.831512998516e+02 
4 1 -4.798652989540e+01  -2.779321510825e+02  -3.777937704693e+02 
5 1  3.887130022465e+02   5.605846649590e+01  -1.802996675780e+02 
6 1  8.884916235419e+01   1.772808491436e+02  -2.575373366997e+02 
7 1 -1.265204752501e+02   9.522472179995e+01  -1.838657132936e+02 
8 1  3.862171763807e+02  -4.331844175034e+02   9.501402682110e+01 
8
Step 43000
1 1 -5.031436775227e+02  -1.573144814271e+02  -6.699705214691e+02 
2 1 -8.075333570787e+01   1.810586781353e+02  -1.384100119482e+01 
3 1  2.048909232864e+02  -6.677938684224e+02  -6.557221421498e+01 
4 1  1.525155903041e+01  -2.182104327568e+02  -1.793712574590e+01 
5 1 -3.299936005397e+02   1.137537843977e+00   4.050359924146e+01 
6 1  1.102416700319e+02  -3.685705714616e+02  -3.267254546363e+02 
7 1 -1.205711976425e+02  -3.931737124967e+01   2.179386973141e+02 
8 1 -3.255505804205e+01  -3.353470928890e+02   2.617394219026e+02 
8
Step 44000
1 1 -1.494530260568e+02  -1.981412208349e+02  -3.702864944022e+02 
2 1 -5.708596035626e+01   2.662577058379e+02  -3.120980901695e+02 
3 1  3.860673387431e+02  -1.268662536979e+02  -2.421615149136e+02 
4 1  2.471692175046e+02  -3.893657997355e+02  -2.634499919493e+02 
5 1 -3.327950571421e+01   8.603931122955e+01  -4.469479175020e+02 
6 1 -1.147685820661e+02  -2.625087885405e+02  -2.661983145988e+02 
7 1 -3.182849384965e+01   1.382383212857e+02   1.229081214587e+02 
8 1 -1.315418348151e+02  -2.139539832310e+02   6.419484028596e+01 
8
Step 45000
1 1 -6.223746207894e+01   1.364079416837e+02  -1.286201281958e+02 
2 1 -7.312144688176e+00  -8.770789057611e+00   1.096148916997e+02 
3 1  1.120968923162e+02  -2.277780295452e+02  -4.742375726869e+02 
4 1  4.588746209695e+01  -1.868599475147e+01   2.303644945718e+01 
5 1 -2.304549836631e+02  -1.022762731134e+02  -4.712332437544e+02 
6 1 -5.411609644224e+02  -3.014195037580e+02  -3.523604134020e+02 
7 1 -8.776051238544e+01  -4.336692402826e+02  -4.122896217014e+02 
8 1 -1.169995911225e+02  -4.305578259140e+02   1.743594864210e+02 
8
Step 46000
1 1 -1.811332226399e+02   1.509130661274e+02  -2.951621788834e+02 
2 1  2.529041271399e+02   2.675912552094e+02  -1.448062235925e+02 
3 1  2.056111297299e+02   2.093976975358e+02  -1.516838650176e+02 
4 1  4.656309511285e+02   2.568507312105e+02   2.310612088756e+02 
5 1 -7.487845585297e+01  -9.977392441720e+01  -2.180716949057e+02 
6 1  1.407565298776e+02  -2.329308101022e+02  -3.269862848487e+02 
7 1  9.150716195831e+01   2.613665848118e+02  -6.081359545397e+01 
8 1 -3.557959496645e+02   2.339082605711e+02  -3.230442148338e+02 
8
Step 47000
1 1 -1.451733081944e+02   1.531857106408e+02  -8.176395637660e+02 
2 1 -9.218004934193e+00   3.312540910508e+02   9.551848711595e+01 
3 1  2.501925165102e+01   2.032347438389e+02  -1.933625622840e+02 
4 1 -6.314007128487e+01  -2.840346334600e+02   3.902579662981e+02 
5 1 -4.913567621480e+01  -2.829067802144e+01  -2.418012238435e+02 
6 1 -5.955802866500e+02  -8.350133932729e+00  -1.828368178839e+02 
7 1 -1.524331212846e+02  -1.789107949898e+02   1.484120159334e+02 
8 1  1.234712214902e+02  -2.956503866831e+02   3.248963957136e+02 
8
Step 48000
1 1 -4.312192626104e+02   9.100162993084e+01  -3.597516973730e+02 
2 1 -7.122986063886e+02   2.206720556506e+02  -2.875905847391e+02 
3 1  5.148730068970e+02  -8.443737488095e+01  -2.639260952234e+02 
4 1  4.010261248156e+02  -2.963185659184e+02   2.620070569004e+02 
5 1 -8.765880998934e+01   9.903879816397e+00  -2.901216830467e+02 
6 1 -1.195722823480e+02   9.838647878056e+01  -2.454389426476e+02 
7 1 -3.279844260209e+02  -2.528347987626e+02   1.710569459555e+02 
8 1 -4.489126586647e+02   1.463160386880e+02  -3.571846882320e+02 
8
Step 49000
1 1 -1.678965951545e+02   2.603136320922e+02  -1.778823931167e+02 
2 1  1.993172734839e+02   6.432045446091e+02   1.539738657712e+02 
3 1  2.079536732363e+02   3.454973088488e+02   5.544887000006e+01 
4 1 -1.288255435995e+02  -2.026987879758e+02  -2.145556564466e+02 
5 1 -2.728381422579e+02  -2.781608904926e+02   1.760174339933e+02 
6 1 -2.224969479600e+02   1.302791994385e+02  -2.517711819990e+02 
7 1 -2.909368817672e+02   2.360272374230e+02   1.199959130490e+02 
8 1 -3.980728099100e+02  -5.565350343864e+02  -1.327150378560e+02 
8
Step 50000
1 1  1.349027092699e+02   6.115266401665e+02  -2.388743897852e+02 
2 1 -4.042203031475e+02   2.934478360700e+02   4.369714557065e+01 
3 1  3.620537524016e+02   9.082147193396e+01  -5.251319878718e+02 
4 1  2.507935346828e+02  -3.484441877862e+02   4.770120320819e+01 
5 1  4.977549575870e+01   4.686573813521e+01  -1.147713629156e+01 
6 1 -5.813686486557e+02   1.908159964883e+00  -1.128632588555e+02 
7 1 -3.711313341461e+02   2.377107621059e+02  -1.190369890572e+02 
8 1 -1.482220945888e+02   4.292040772120e+01  -7.670061794737e+02 
8
Step 51000
1 1  7.993297700465e+01  -4.319182122648e+01   8.173607912145e+00 
2 1 -3.541993270936e+02   4.003755393946e+02   9.223158878722e+01 
3 1  2.656958341635e+02   4.507613265486e+02   2.825236557092e+02 
4 1  4.221828621114e+01   1.890511033672e+02  -1.074571383855e+02 
5 1 -1.485091590079e+02   1.581566358889e+02   6.467731008306e+01 
6 1  8.363576980297e+01  -3.359706540987e+01   3.254277405286e+02 
7 1 -3.543198990514e+02   6.771538967861e+02  -1.292805504212e+01 
8 1 -4.086194076389e+02  -3.214642791421e+02  -3.786357556842e+02 
8
Step 52000
1 1 -2.275756990774e+02  -1.050225154978e+02  -3.091992859956e+02 
2 1 -2.469633415407e+01   2.060148539857e+02   1.666711726215e+02 
3 1 -3.714537044280e+02   3.286212325189e+02  -1.649063341844e+02 
4 1  8.012031683275e+01  -2.432932836740e+01  -2.104174352242e+02 
5 1  1.716899698177e+02  -2.487430849610e+02   1.863643317957e+02 
6 1 -3.916480407565e+02   1.439741813324e+02   3.016847803710e+02 
7 1 -1.625663704109e+02   7.641378940117e+02   2.140864727682e+02 
8 1 -1.125828543067e+02  -1.676009661470e+01  -8.959043439442e+01 
8
Step 53000
1 1  2.480495985489e+02  -1.001158299699e+02   6.886311130095e+01 
2 1 -2.474563425510e+02   4.263289510880e+02   2.317147208613e+02 
3 1 -2.728955861300e+01   1.214685337343e+02   9.268407471878e+00 
4 1 -3.587496339380e+02  -1.326430927373e+02  -2.305735396795e+02 
5 1 -1.332270468868e+02   1.223024336885e+02   1.328932859101e+02 
6 1 -7.766362246773e+01  -1.153614757084e+02   2.767617294964e+02 
7 1 -4.988736105920e+02   4.660183100467e+02  -2.213140465717e+02 
8 1 -5.509813326454e+02  -1.599104582946e+02  -2.178286698102e+02 
8
Step 54000
1 1 -2.880322432926e+01  -1.821978893987e+02   4.558513146559e+01 
2 1 -9.128546789478e+00   8.139797438863e+02   6.447984059464e+01 
3 1  1.720177871080e+02  -1.687867904077e+01   1.855866181355e+02 
4 1  1.153169972716e+01  -2.669465936414e+02  -1.350919782126e+02 
5 1 -2.015404467105e+02  -6.541864552853e+01  -1.468357849269e+02 