8
Step 0
1 4.02573418348032419e+00 0.0 0.0
1 7.25924814801329035e+01 0.0 0.0
1 -7.37016840553729082e+01 0.0 0.0
1 6.74178258713448031e+00 0.0 0.0
1 -6.62212382901105627e+01 0.0 0.0
1 7.29755721256853462e+01 0.0 0.0
1 1.18275084079295254e+02 0.0 0.0
1 -1.33727210584591177e+02 0.0 0.0
8
Step 10
1 -2.08668553296381121e-02 0.0 0.0
1 7.06602589381858763e+01 0.0 0.0
1 -7.54297633186887850e+01 0.0 0.0
1 -1.98054215117663635e+00 0.0 0.0
1 -6.23714076700744755e+01 0.0 0.0
1 7.09376318820803107e+01 0.0 0.0
1 1.22370066255809832e+02 0.0 0.0
1 -1.29738125556010260e+02 0.0 0.0
8
Step 20
1 -4.09481169554393531e+00 0.0 0.0
1 6.85210340428230467e+01 0.0 0.0
1 -7.59425461797023900e+01 0.0 0.0
1 -1.09366361494668141e+01 0.0 0.0
1 -5.74919429957833046e+01 0.0 0.0
1 6.89108600728130796e+01 0.0 0.0
1 1.26045754296153532e+02 0.0 0.0
1 -1.24531042477952084e+02 0.0 0.0
8
Step 30
1 -8.14011012320659511e+00 0.0 0.0
1 6.61795917614194877e+01 0.0 0.0
1 -7.52246853248620511e+01 0.0 0.0
1 -2.00708544623221457e+01 0.0 0.0
1 -5.16511015860268046e+01 0.0 0.0
1 6.69233517032574667e+01 0.0 0.0
1 1.29224303158326904e+02 0.0 0.0
1 -1.18184537867282486e+02 0.0 0.0
8
Step 40
1 -1.21026529803695588e+01 0.0 0.0
1 6.36421412879678172e+01 0.0 0.0
1 -7.32743729228552780e+01 0.0 0.0
1 -2.93259110273710526e+01 0.0 0.0
1 -4.49328480275662301e+01 0.0 0.0
1 6.49989002435865046e+01 0.0 0.0
1 1.31828820832197209e+02 0.0 0.0
1 -1.10788845837772342e+02 0.0 0.0
8
Step 50
1 -1.59323039709952070e+01 0.0 0.0
1 6.09173634615792068e+01 0.0 0.0
1 -7.01060030377860386e+01 0.0 0.0
1 -3.86408472607733984e+01 0.0 0.0
1 -3.74359196067719964e+01 0.0 0.0
1 6.31565979093575081e+01 0.0 0.0
1 1.33785289414041983e+02 0.0 0.0
1 -1.02444688941301351e+02 0.0 0.0
8
Step 60
1 -1.95850130697525842e+01 0.0 0.0
1 5.80175078802119302e+01 0.0 0.0
1 -6.57530641081968952e+01 0.0 0.0
1 -4.79486894977206788e+01 0.0 0.0
1 -2.92727823740695428e+01 0.0 0.0
1 6.14105084181490639e+01 0.0 0.0
1 1.35024775481562244e+02 0.0 0.0
1 -9.32620572512636414e+01 0.0 0.0
8
Step 70
1 -2.30246576746322624e+01 0.0 0.0
1 5.49593117331626928e+01 0.0 0.0
1 -6.02701967930955007e+01 0.0 0.0
1 -5.71746785398239368e+01 0.0 0.0
1 -2.05684196236307599e+01 0.0 0.0
1 5.97694239840083128e+01 0.0 0.0
1 1.35485682412984715e+02 0.0 0.0
1 -8.33589838309571860e+01 0.0 0.0
8
Step 80
1 -2.62241579608204205e+01 0.0 0.0
1 5.17644856639646775e+01 0.0 0.0
1 -5.37336778469787291e+01 0.0 0.0
1 -6.62357901872288579e+01 0.0 0.0
1 -1.14588564124059733e+01 0.0 0.0
1 5.82367187275117786e+01 0.0 0.0
1 1.35115765712482442e+02 0.0 0.0
1 -7.28603587077671762e+01 0.0 0.0
8
Step 90
1 -2.91653942884680006e+01 0.0 0.0
1 4.84595533436411188e+01 0.0 0.0
1 -4.62403131811348516e+01 0.0 0.0
1 -7.50417181930469610e+01 0.0 0.0
1 -2.08932779873129082e+00 0.0 0.0
1 5.68103096789046589e+01 0.0 0.0
1 1.33873704035191707e+02 0.0 0.0
1 -6.18967985953404707e+01 0.0 0.0
8
Step 100
1 -3.18377420939346543e+01 0.0 0.0
1 4.50749661600314155e+01 0.0 0.0
1 -3.79052811546826973e+01 0.0 0.0
1 -8.34969713206176891e+01 0.0 0.0
1 7.38796656382503070e+00 0.0 0.0
1 5.54827347236729622e+01 0.0 0.0
1 1.31730150305701272e+02 0.0 0.0
1 -5.06035251624808424e+01 0.0 0.0
8
Step 110
1 -3.42355784073798688e+01 0.0 0.0
1 4.16436154784587558e+01 0.0 0.0
1 -2.88595216091013000e+01 0.0 0.0
1 -9.15035501388043997e+01 0.0 0.0
1 1.68165250961252113e+01 0.0 0.0
1 5.42413556090865256e+01 0.0 0.0
1 1.28668310018787594e+02 0.0 0.0
1 -3.91191029639757133e+01 0.0 0.0
8
Step 120
1 -3.63555584298280721e+01 0.0 0.0
1 3.81990334360570714e+01 0.0 0.0
1 -1.92469794042178961e+01 0.0 0.0
1 -9.89637685728174574e+01 0.0 0.0
1 2.60385525472613786e+01 0.0 0.0
1 5.30686936611675790e+01 0.0 0.0
1 1.24684156573946268e+02 0.0 0.0
1 -2.75838237418873895e+01 0.0 0.0
8
Step 130
1 -3.81944660650334242e+01 0.0 0.0
1 3.47736099979459894e+01 0.0 0.0
1 -9.22173220268128979e+00 0.0 0.0
1 -1.05782967242876026e+02 0.0 0.0
1 3.48981595341066040e+01 0.0 0.0
1 5.19429023320997700e+01 0.0 0.0
1 1.19786387117383640e+02 0.0 0.0
1 -1.61375914405742300e+01 0.0 0.0
8
Step 140
1 -3.97480235181851214e+01 0.0 0.0
1 3.13970558037487528e+01 0.0 0.0
1 1.05506314912864796e+00 0.0 0.0
1 -1.11872006644824907e+02 0.0 0.0
1 4.32445501138991020e+01 0.0 0.0
1 5.08383685691918927e+01 0.0 0.0
1 1.13996177241488255e+02 0.0 0.0
1 -4.91735257969597761e+00 0.0 0.0
8
Step 150
1 -4.10105455384857649e+01 0.0 0.0
1 2.80951955171552079e+01 0.0 0.0
1 1.14184261476121680e+01 0.0 0.0
1 -1.17149511875676964e+02 0.0 0.0
1 5.09350089866458617e+01 0.0 0.0
1 4.97264146737852784e+01 0.0 0.0
1 1.07346749406382713e+02 0.0 0.0
1 5.94569909422159171e+00 0.0 0.0
8
Step 160
1 -4.19750609271762940e+01 0.0 0.0
1 2.48890732077225785e+01 0.0 0.0
1 2.17029583787509601e+01 0.0 0.0
1 -1.21543889479331241e+02 0.0 0.0
1 5.78375709517733156e+01 0.0 0.0
1 4.85760553436418760e+01 0.0 0.0
1 9.98827477074051444e+01 0.0 0.0
1 1.63288528709855143e+01 0.0 0.0
8
Step 170
1 -4.26335529576481846e+01 0.0 0.0
1 2.17943161931104932e+01 0.0 0.0
1 3.17463153523162624e+01 0.0 0.0
1 -1.24995165667298522e+02 0.0 0.0
1 6.38333486578686760e+01 0.0 0.0
1 4.73547670141669741e+01 0.0 0.0
1 9.16594072078746365e+01 0.0 0.0
1 2.61203127769797412e+01 0.0 0.0
8
Step 180
1 -4.29771490690206335e+01 0.0 0.0
1 1.88207139716625598e+01 0.0 0.0
1 4.13926715460849195e+01 0.0 0.0
1 -1.27456696686689426e+02 0.0 0.0
1 6.88185716221760941e+01 0.0 0.0
1 4.60292515824099553e+01 0.0 0.0
1 8.27415112873720489e+01 0.0 0.0
1 3.52211836017479527e+01 0.0 0.0
8
Step 190
1 -4.29962647390555688e+01 0.0 0.0
1 1.59719924476657784e+01 0.0 0.0
1 5.04961309445600577e+01 0.0 0.0
1 -1.28896751308317704e+02 0.0 0.0
1 7.27064172028481153e+01 0.0 0.0
1 4.45662042915810872e+01 0.0 0.0
1 7.32021445420931514e+01 0.0 0.0
1 4.35469102653350575e+01 0.0 0.0
8
Step 200
1 -4.26808120233948358e+01 0.0 0.0
1 1.32457816724949105e+01 0.0 0.0
1 5.89240302671846834e+01 0.0 0.0
1 -1.29299839850289658e+02 0.0 0.0
1 7.54286758112390459e+01 0.0 0.0
1 4.29330981207921809e+01 0.0 0.0
1 6.31212742370541520e+01 0.0 0.0
1 5.10280875387224455e+01 0.0 0.0
8
Step 210
1 -4.20206082644796197e+01 0.0 0.0
1 1.06337803769205301e+01 0.0 0.0
1 6.65600004599015733e+01 0.0 0.0
1 -1.28667487706741269e+02 0.0 0.0
1 7.69372024525668650e+01 0.0 0.0
1 4.10989674564247238e+01 0.0 0.0
1 5.25842249303101141e+01 0.0 0.0
1 5.76106053548610291e+01 0.0 0.0
8
Step 220
1 -4.10060406592827817e+01 0.0 0.0
1 8.12211056894769534e+00 0.0 0.0
1 7.33064895353815160e+01 0.0 0.0
1 -1.27018035400815677e+02 0.0 0.0
1 7.72050180738614102e+01 0.0 0.0
1 3.90351373572341629e+01 0.0 0.0
1 4.16801326318141463e+01 0.0 0.0
1 6.32551999782732537e+01 0.0 0.0
8
Step 230
1 -3.96288644469550349e+01 0.0 0.0
1 5.69184055347814866e+00 0.0 0.0
1 7.90863142881556058e+01 0.0 0.0
1 -1.24385154484778582e+02 0.0 0.0
1 7.62269050636218708e+01 0.0 0.0
1 3.67158391282703676e+01 0.0 0.0
1 3.05004620074599515e+01 0.0 0.0
1 6.79366012507836246e+01 0.0 0.0
8
Step 240
1 -3.78828740303480274e+01 0.0 0.0
1 3.31966438190208324e+00 0.0 0.0
1 8.38428887240614245e+01 0.0 0.0
1 -1.20815151663549869e+02 0.0 0.0
1 7.40194168478725203e+01 0.0 0.0
1 3.41186932207715543e+01 0.0 0.0
1 1.91376491181312289e+01 0.0 0.0
1 7.16425258573959525e+01 0.0 0.0
8
Step 250
1 -3.57642709219571628e+01 0.0 0.0
1 9.78782593978427151e-01 0.0 0.0
1 8.75391262194232240e+01 0.0 0.0
1 -1.16363593902953085e+02 0.0 0.0
1 7.06203400462099751e+01 0.0 0.0
1 3.12250989256149794e+01 0.0 0.0
1 7.68392521347133695e+00 0.0 0.0
1 7.43727253599998335e+01 0.0 0.0
8
Step 260
1 -3.32718382138750428e+01 0.0 0.0
1 -1.35989421352528295e+00 0.0 0.0
1 9.01554038417174723e+01 0.0 0.0
1 -1.11092012977376413e+02 0.0 0.0
1 6.60877235438299664e+01 0.0 0.0
1 2.80205985638162751e+01 0.0 0.0
1 -3.76958760176145802e+00 0.0 0.0
1 7.61381858256404342e+01 0.0 0.0
8
Step 270
1 -3.04072669925501167e+01 0.0 0.0
1 -3.72607094369321246e+00 0.0 0.0
1 9.16871328072463001e+01 0.0 0.0
1 -1.05065331769453820e+02 0.0 0.0
1 6.04985839323470316e+01 0.0 0.0
1 2.44952607674126526e+01 0.0 0.0
1 -1.51333588133949331e+01 0.0 0.0
1 7.69604653114458870e+01 0.0 0.0
8
Step 280
1 -2.71759650230329619e+01 0.0 0.0
1 -6.14785255184391310e+00 0.0 0.0
1 9.21423828279520052e+01 0.0 0.0
1 -9.83503587980058853e+01 0.0 0.0
1 5.39473421709215586e+01 0.0 0.0
1 2.06440749436374702e+01 0.0 0.0
1 -2.63193454854838258e+01 0.0 0.0
1 7.68710972488469224e+01 0.0 0.0
8
Step 290
1 -2.35884360025937170e+01 0.0 0.0
1 -8.64910063255982386e+00 0.0 0.0
1 9.15398564924131648e+01 0.0 0.0
1 -9.10154091765351296e+01 0.0 0.0
1 4.65439934107041680e+01 0.0 0.0
1 1.64673032005415649e+01 0.0 0.0
1 -3.72402373930708350e+01 0.0 0.0
1 7.59109826843497615e+01 0.0 0.0
8
Step 300
1 -1.96620036105428397e+01 0.0 0.0
1 -1.12467107171699237e+01 0.0 0.0
1 8.99074401691549525e+01 0.0 0.0
1 -8.31308775523373242e+01 0.0 0.0
1 3.84119875464797573e+01 0.0 0.0
1 1.19707203762569261e+01 0.0 0.0
1 -4.78082105905183496e+01 0.0 0.0
1 7.41297152924154261e+01 0.0 0.0
8
Step 310
1 -1.54224199607101706e+01 0.0 0.0
1 -1.39483488900919355e+01 0.0 0.0
1 8.72815364130378413e+01 0.0 0.0
1 -7.47703927060179154e+01 0.0 0.0
1 2.96858028549749768e+01 0.0 0.0
1 7.16569512842799394e+00 0.0 0.0
1 -5.79336115860912884e+01 0.0 0.0
1 7.15848068350802293e+01 0.0 0.0
8
Step 320
1 -1.09048397699456316e+01 0.0 0.0
1 -1.67512152738237319e+01 0.0 0.0
1 8.37073007346432263e+01 0.0 0.0
1 -6.60120507778694048e+01 0.0 0.0
1 2.05082212857143702e+01 0.0 0.0
1 2.06911691011095078e+00 0.0 0.0
1 -6.75241537190206884e+01 0.0 0.0
1 6.83407983882018044e+01 0.0 0.0
8
Step 330
1 -6.15377573406734246e+00 0.0 0.0
1 -1.96422055628518102e+01 0.0 0.0
1 7.92397107580058844e+01 0.0 0.0
1 -5.69392195311555938e+01 0.0 0.0
1 1.10273553330551195e+01 0.0 0.0
1 -3.29677348108264301e+00 0.0 0.0
1 -7.64851598199551290e+01 0.0 0.0
1 6.44682544116410554e+01 0.0 0.0
8
Step 340
1 -1.22189599181747610e+00 0.0 0.0
1 -2.25994704366445092e+01 0.0 0.0
1 7.39451354081837167e+01 0.0 0.0
1 -4.76405530003821056e+01 0.0 0.0
1 1.39352556256370907e+00 0.0 0.0
1 -8.90457515324442106e+00 0.0 0.0
1 -8.47211456746400700e+01 0.0 0.0
1 6.00426453604510115e+01 0.0 0.0
8
Step 350
1 3.83225414854753810e+00 0.0 0.0
1 -2.55949846337381395e+01 0.0 0.0
1 6.79028461511198458e+01 0.0 0.0
1 -3.82090995714130557e+01 0.0 0.0
1 -8.24387060693458551e+00 0.0 0.0
1 -1.47218999060011306e+01 0.0 0.0
1 -9.21387150013516418e+01 0.0 0.0
1 5.51431328416861390e+01 0.0 0.0
8
Step 360
1 8.94741671219339985e+00 0.0 0.0
1 -2.85975231654237341e+01 0.0 0.0
1 6.12058214554611340e+01 0.0 0.0
1 -2.87406323644849344e+01 0.0 0.0
1 -1.77393450167794953e+01 0.0 0.0
1 -2.07115492180566747e+01 0.0 0.0
1 -9.86504335747992656e+01 0.0 0.0
1 4.98512829477330399e+01 0.0 0.0
8
Step 370
1 1.40634517059824979e+01 0.0 0.0
1 -3.15755192003900298e+01 0.0 0.0
1 5.39603204141140012e+01 0.0 0.0
1 -1.93314995057481482e+01 0.0 0.0
1 -2.69540233528097417e+01 0.0 0.0
1 -2.68317674059969420e+01 0.0 0.0
1 -1.04179123158051397e+02 0.0 0.0
1 4.42497530946343502e+01 0.0 0.0
8
Step 380
1 1.91254991373394176e+01 0.0 0.0
1 -3.44995752758401011e+01 0.0 0.0
1 4.62840612309156185e+01 0.0 0.0
1 -1.00763520332724266e+01 0.0 0.0
1 -3.57579387962795749e+01 0.0 0.0
1 -3.30366494957371373e+01 0.0 0.0
1 -1.08661901891027469e+02 0.0 0.0
1 3.84210263417911548e+01 0.0 0.0
8
Step 390
1 2.40877909673654500e+01 0.0 0.0
1 -3.73446232607879836e+01 0.0 0.0
1 3.83033076860127863e+01 0.0 0.0
1 -1.06607863547243253e+00 0.0 0.0
1 -4.40317333211309005e+01 0.0 0.0
1 -3.92767443439234754e+01 0.0 0.0
1 -1.12053333530266414e+02 0.0 0.0
1 3.24462900574856761e+01 0.0 0.0
8
Step 400
1 2.89159906122798311e+01 0.0 0.0
1 -4.00916012722959110e+01 0.0 0.0
1 3.01494772216677092e+01 0.0 0.0
1 7.61380935690439387e+00 0.0 0.0
1 -5.16675316264767162e+01 0.0 0.0
1 -4.54998325076513908e+01 0.0 0.0
1 -1.14327239092743682e+02 0.0 0.0
1 2.64045379099709088e+01 0.0 0.0
8
Step 410
1 3.35869665796382861e+01 0.0 0.0
1 -4.27281860274748482e+01 0.0 0.0
1 2.19558343418180044e+01 0.0 0.0
1 1.58842448245440462e+01 0.0 0.0
1 -5.85688856999073977e+01 0.0 0.0
1 -5.16518119898050401e+01 0.0 0.0
1 -1.15477033095744687e+02 0.0 0.0
1 2.03718911414785424e+01 0.0 0.0
8
Step 420
1 3.80858813055727339e+01 0.0 0.0
1 -4.52481376187899684e+01 0.0 0.0
1 1.38544914738263039e+01 0.0 0.0
1 2.36732213707819810e+01 0.0 0.0
1 -6.46500743500244681e+01 0.0 0.0
1 -5.76776263830388771e+01 0.0 0.0
1 -1.15514796552306663e+02 0.0 0.0
1 1.44210313030687178e+01 0.0 0.0
8
Step 430
1 4.24018851466700468e+01 0.0 0.0
1 -4.76494043632874664e+01 0.0 0.0
1 5.97360697732842816e+00 0.0 0.0
1 3.09161990621879603e+01 0.0 0.0
1 -6.98353818823440804e+01 0.0 0.0
1 -6.35222098632779648e+01 0.0 0.0
1 -1.14469556031966022e+02 0.0 0.0
1 8.62061327274031797e+00 0.0 0.0
8
Step 440
1 4.65243099163800053e+01 0.0 0.0
1 -4.99317573853247794e+01 0.0 0.0
1 -1.56541672062161585e+00 0.0 0.0
1 3.75565117991320818e+01 0.0 0.0
1 -7.40589081856883666e+01 0.0 0.0
1 -6.91314501056605621e+01 0.0 0.0
1 -1.12385272083729475e+02 0.0 0.0
1 3.03461751159986015e+00 0.0 0.0
8
Step 450
1 5.04406126082389648e+01 0.0 0.0
1 -5.20947785713009921e+01 0.0 0.0
1 -8.65080544767481818e+00 0.0 0.0
1 4.35458322014920114e+01 0.0 0.0
1 -7.72650569946575132e+01 0.0 0.0
1 -7.44531508717431620e+01 0.0 0.0
1 -1.09318873108204897e+02 0.0 0.0
1 -2.27828995841381232e+00 0.0 0.0
8
Step 460
1 5.41362168638139210e+01 0.0 0.0
1 -5.41366017963743928e+01 0.0 0.0
1 -1.51832573602846956e+01 0.0 0.0
1 4.88446106117818957e+01 0.0 0.0
1 -7.94095004252670407e+01 0.0 0.0
1 -7.94379339806102962e+01 0.0 0.0
1 -1.05338463430814542e+02 0.0 0.0
1 -7.26529295174970891e+00 0.0 0.0
8
Step 470
1 5.75956809331842052e+01 0.0 0.0
1 -5.60533750952246166e+01 0.0 0.0
1 -2.10785378860381627e+01 0.0 0.0
1 5.34223614786269962e+01 0.0 0.0
1 -8.04603261516098343e+01 0.0 0.0
1 -8.40399974714282507e+01 0.0 0.0
1 -1.00521708425378691e+02 0.0 0.0
1 -1.18798109266634082e+01 0.0 0.0
8
Step 480
1 6.08044249794680098e+01 0.0 0.0
1 -5.78392177930904481e+01 0.0 0.0
1 -2.62695284530656643e+01 0.0 0.0
1 5.72577031694534924e+01 0.0 0.0
1 -8.03991511384936359e+01 0.0 0.0
1 -8.82176614692123451e+01 0.0 0.0
1 -9.49543590048957782e+01 0.0 0.0
1 -1.60817591099323636e+01 0.0 0.0
8
Step 490
1 6.37503360045065151e+01 0.0 0.0
1 -5.94864472346889102e+01 0.0 0.0
1 -3.07074147257776247e+01 0.0 0.0
1 6.03381282294863368e+01 0.0 0.0
1 -7.92220882674674556e+01 0.0 0.0
1 -9.19336783324583422e+01 0.0 0.0
1 -8.87288745433145891e+01 0.0 0.0
1 -1.98377425202985123e+01 0.0 0.0
8
Step 500
1 6.64247629627283800e+01 0.0 0.0
1 -6.09859241199796074e+01 0.0 0.0
1 -3.43617959201886691e+01 0.0 0.0
1 6.26595694469627418e+01 0.0 0.0
1 -7.69405182663357863e+01 0.0 0.0
1 -9.51553389832704681e+01 0.0 0.0
1 -8.19431044554060151e+01 0.0 0.0
1 -2.31212328295037786e+01 0.0 0.0
8
Step 510
1 6.88226769160496872e+01 0.0 0.0
1 -6.23274384722745580e+01 0.0 0.0
1 -3.72197224047210966e+01 0.0 0.0
1 6.42259053252671777e+01 0.0 0.0
1 -7.35816540342529493e+01 0.0 0.0
1 -9.78544496751472366e+01 0.0 0.0
1 -7.46989889474980515e+01 0.0 0.0
1 -2.59127346748700766e+01 0.0 0.0
8
Step 520
1 7.09420598778446134e+01 0.0 0.0
1 -6.35001046788841066e+01 0.0 0.0
1 -3.92839306903530030e+01 0.0 0.0
1 6.50485708245903993e+01 0.0 0.0
1 -6.91889020775465298e+01 0.0 0.0
1 -1.00007266453055621e+02 0.0 0.0
1 -6.71012464889998625e+01 0.0 0.0
1 -2.81999022985969177e+01 0.0 0.0
8
Step 530
1 7.27828020477989668e+01 0.0 0.0
1 -6.44927542406718004e+01 0.0 0.0
1 -4.05706896514311595e+01 0.0 0.0
1 6.51463756349740777e+01 0.0 0.0
1 -6.38220219317018689e+01 0.0 0.0
1 -1.01594457175526117e+02 0.0 0.0
1 -5.92560351762289201e+01 0.0 0.0
1 -2.99775449443286242e+01 0.0 0.0
8
Step 540
1 7.43454485222080876e+01 0.0 0.0
1 -6.52943187319467881e+01 0.0 0.0
1 -4.11076262893963147e+01 0.0 0.0
1 6.45455088399537686e+01 0.0 0.0
1 -5.75570484683914216e+01 0.0 0.0
1 -1.02601126209181444e+02 0.0 0.0
1 -5.12696042458561365e+01 0.0 0.0
1 -3.12474715010368875e+01 0.0 0.0
8
Step 550
1 7.56300568039748669e+01 0.0 0.0
1 -6.58941935030025547e+01 0.0 0.0
1 -4.09317324203623443e+01 0.0 0.0
1 6.32795969459099936e+01 0.0 0.0
1 -5.04858869932387506e+01 0.0 0.0
1 -1.03016901459197626e+02 0.0 0.0
1 -4.32469780684095184e+01 0.0 0.0
1 -3.20181618667227923e+01 0.0 0.0
8
Step 560
1 7.66352905517280192e+01 0.0 0.0
1 -6.62825711835846789e+01 0.0 0.0
1 -4.00875925612609123e+01 0.0 0.0
1 6.13896437550285370e+01 0.0 0.0
1 -4.27154592776949116e+01 0.0 0.0
1 -1.02836058607501187e+02 0.0 0.0
1 -3.52907219715066631e+01 0.0 0.0
1 -3.23042914053284065e+01 0.0 0.0
8
Step 570
1 7.73577612972522104e+01 0.0 0.0
1 -6.64507348460223142e+01 0.0 0.0
1 -3.86257921381779425e+01 0.0 0.0
1 5.89237246577592657e+01 0.0 0.0
1 -3.43663068781687073e+01 0.0 0.0
1 -1.02057647170958859e+02 0.0 0.0
1 -2.74998189246019571e+01 0.0 0.0
1 -3.21261552094450522e+01 0.0 0.0
8
Step 580
1 7.77915695678098302e+01 0.0 0.0
1 -6.63913034053269513e+01 0.0 0.0
1 -3.66014581853696015e+01 0.0 0.0
1 5.59363942235303568e+01 0.0 0.0
1 -2.55706403607427717e+01 0.0 0.0
1 -1.00685585448002342e+02 0.0 0.0
1 -1.99686474132369902e+01 0.0 0.0
1 -3.15090358141733766e+01 0.0 0.0
8
Step 590
1 7.79279859408644029e+01 0.0 0.0
1 -6.60984262489334355e+01 0.0 0.0
1 -3.40729099387601408e+01 0.0 0.0
1 5.24878419427217366e+01 0.0 0.0
1 -1.64699152845766790e+01 0.0 0.0
1 -9.87287014384659045e+01 0.0 0.0
1 -1.27860167614776756e+01 0.0 0.0
1 -3.04825419863978659e+01 0.0 0.0
8
Step 600
1 7.77552373424687460e+01 0.0 0.0
1 -6.55679309290568000e+01 0.0 0.0
1 -3.11004222029732453e+01 0.0 0.0
1 4.86428676291617919e+01 0.0 0.0
1 -7.21207484527289822e+00 0.0 0.0
1 -9.62007085339862300e+01 0.0 0.0
1 -6.03420811879059649e+00 0.0 0.0
1 -2.90799312232437650e+01 0.0 0.0
8
Step 610
1 7.72584148055845930e+01 0.0 0.0
1 -6.47974383125829263e+01 0.0 0.0
1 -2.77451239103567389e+01 0.0 0.0
1 4.44697480156343374e+01 0.0 0.0
1 2.05138798030253700e+00 0.0 0.0
1 -9.31201141153085530e+01 0.0 0.0
1 2.12007489087766232e-01 0.0 0.0
1 -2.73374217512851310e+01 0.0 0.0
8
Step 620
1 7.64195904503013423e+01 0.0 0.0
1 -6.37864744232523080e+01 0.0 0.0
1 -2.40680789897973675e+01 0.0 0.0
1 4.00390484421484132e+01 0.0 0.0
1 1.11684152775988732e+01 0.0 0.0
1 -8.95100648945733610e+01 0.0 0.0
1 5.88636092118644871e+00 0.0 0.0
1 -2.52935003891091199e+01 0.0 0.0
8
Step 630
1 7.52183128208940843e+01 0.0 0.0
1 -6.25366246331629299e+01 0.0 0.0
1 -2.01296371902240274e+01 0.0 0.0
1 3.54224155972733641e+01 0.0 0.0
1 1.99893138678423128e+01 0.0 0.0
1 -8.53981355738032448e+01 0.0 0.0
1 1.09320339587995896e+01 0.0 0.0
1 -2.29882369001296780e+01 0.0 0.0
8
Step 640
1 7.36327094536954974e+01 0.0 0.0
1 -6.10517844455299112e+01 0.0 0.0
1 -1.59891899702831868e+01 0.0 0.0
1 3.06913771440774248e+01 0.0 0.0
1 2.83695581945317485e+01 0.0 0.0
1 -8.08160680463209218e+01 0.0 0.0
1 1.53024930554308316e+01 0.0 0.0
1 -2.04626203889647336e+01 0.0 0.0
8
Step 650
1 7.16414007688193806e+01 0.0 0.0
1 -5.93385444542034577e+01 0.0 0.0
1 -1.17054787292501654e+01 0.0 0.0
1 2.59161717578004875e+01 0.0 0.0
1 3.61724198835684234e+01 0.0 0.0
1 -7.57994668941080363e+01 0.0 0.0
1 1.89621403687065282e+01 0.0 0.0
1 -1.77579365989285485e+01 0.0 0.0
8
Step 660
1 6.92262465703912540e+01 0.0 0.0
1 -5.74066881933567288e+01 0.0 0.0
1 -7.33751397386965731e+00 0.0 0.0
1 2.11646344306381202e+01 0.0 0.0
1 4.32713947169473698e+01 0.0 0.0
1 -7.03874527180678342e+01 0.0 0.0
1 2.18867380967359431e+01 0.0 0.0
1 -1.49152038328104002e+01 0.0 0.0
8
Step 670
1 6.63755993046202661e+01 0.0 0.0
1 -5.52696866423187458e+01 0.0 0.0
1 -2.94594236515270058e+00 0.0 0.0
1 1.65011622356303178e+01 0.0 0.0
1 4.95524031575697137e+01 0.0 0.0
1 -6.46222687376931475e+01 0.0 0.0
1 2.40635892841282590e+01 0.0 0.0
1 -1.19746771077023908e+01 0.0 0.0
8
Step 680
1 6.30873777993463634e+01 0.0 0.0
1 -5.29449915464340179e+01 0.0 0.0
1 1.40557477724984015e+00 0.0 0.0
1 1.19857830155733200e+01 0.0 0.0
1 5.49157309750730818e+01 0.0 0.0
1 -5.85488321214514258e+01 0.0 0.0
1 2.54914767429252187e+01 0.0 0.0
1 -8.97541655948334594e+00 0.0 0.0
8
Step 690
1 5.93711678130124554e+01 0.0 0.0
1 -5.04539327915400122e+01 0.0 0.0
1 5.64954196387550400e+00 0.0 0.0
1 7.67334512998925966e+00 0.0 0.0
1 5.92776572661238959e+01 0.0 0.0
1 -5.22142246302401034e+01 0.0 0.0
1 2.61803707342999878e+01 0.0 0.0
1 -5.95490470307636066e+00 0.0 0.0
8
Step 700
1 5.52488467574466426e+01 0.0 0.0
1 -4.78211379540455610e+01 0.0 0.0
1 9.71479314856829745e+00 0.0 0.0
1 3.61284329299831963e+00 0.0 0.0
1 6.25717039020750079e+01 0.0 0.0
1 -4.56671276924297089e+01 0.0 0.0
1 2.61509245675199367e+01 0.0 0.0
1 -2.94869645944863334e+00 0.0 0.0
8
Step 710
1 5.07537539807506448e+01 0.0 0.0
1 -4.50735536960128087e+01 0.0 0.0
1 1.35277111312668019e+01 0.0 0.0
1 -1.53105562684259344e-01 0.0 0.0
1 6.47494489314687343e+01 0.0 0.0
1 -3.89572189179561619e+01 0.0 0.0
1 2.54337911821608529e+01 0.0 0.0
1 9.90383751401496815e-03 0.0 0.0
8
Step 720
1 4.59288477156189074e+01 0.0 0.0
1 -4.22392635516773112e+01 0.0 0.0
1 1.70142503935403262e+01 0.0 0.0
1 -3.58862387785032633e+00 0.0 0.0
1 6.57808798913691959e+01 0.0 0.0
1 -3.21345540315958402e+01 0.0 0.0
1 2.40688076911342321e+01 0.0 0.0
1 2.89013180452419327e+00 0.0 0.0
8
Step 730
1 4.08244107106871326e+01 0.0 0.0
1 -3.93463186908395102e+01 0.0 0.0
1 2.01023760154237578e+01 0.0 0.0
1 -6.66476492634111040e+00 0.0 0.0
1 6.56543107957901384e+01 0.0 0.0
1 -2.52489598806819977e+01 0.0 0.0
1 2.21040988862769439e+01 0.0 0.0
1 5.66400633699323652e+00 0.0 0.0
8
Step 740
1 3.54957450193714266e+01 0.0 0.0
1 -3.64217469400591227e+01 0.0 0.0
1 2.27245730142522753e+01 0.0 0.0
1 -9.35953647803705380e+00 0.0 0.0
1 6.43759330284982951e+01 0.0 0.0
1 -1.83494639712056831e+01 0.0 0.0
1 1.95951413812418167e+01 0.0 0.0
1 8.30651690446374147e+00 0.0 0.0
8
Step 750
1 3.00010958580868596e+01 0.0 0.0
1 -3.34908228110307533e+01 0.0 0.0
1 2.48201912273817271e+01 0.0 0.0
1 -1.16577728958845910e+01 0.0 0.0
1 6.19691020849949581e+01 0.0 0.0
1 -1.14837852015698019e+01 0.0 0.0
1 1.66038122568216906e+01 0.0 0.0
1 1.07957512101204252e+01 0.0 0.0
8
Step 760
1 2.43998806268076329e+01 0.0 0.0
1 -3.05765981100214077e+01 0.0 0.0
1 2.63374852816351215e+01 0.0 0.0
1 -1.35508866627696651e+01 0.0 0.0
1 5.84734712712199354e+01 0.0 0.0
1 -4.69790677863758699e+00 0.0 0.0
1 1.31974276301346976e+01 0.0 0.0
1 1.31129654899813239e+01 0.0 0.0
8
Step 770
1 1.87512053978373814e+01 0.0 0.0
1 -2.76996259742123740e+01 0.0 0.0
1 2.72352622026807651e+01 0.0 0.0
1 -1.50365414818383591e+01 0.0 0.0
1 5.39440687092307982e+01 0.0 0.0
1 1.96425672488021652e+00 0.0 0.0
1 9.44776355411038971e+00 0.0 0.0
1 1.52426030121775860e+01 0.0 0.0
8
Step 780
1 1.31126153057178882e+01 0.0 0.0
1 -2.48777732623891978e+01 0.0 0.0
1 2.74840748762044988e+01 0.0 0.0
1 -1.61182917939701902e+01 0.0 0.0
1 4.84503797193001517e+01 0.0 0.0
1 8.46109976433885791e+00 0.0 0.0
1 5.43004676649241080e+00 0.0 0.0
1 1.71722670605592640e+01 0.0 0.0
8
Step 790
1 7.53902650602233759e+00 0.0 0.0
1 -2.21260161626375549e+01 0.0 0.0
1 2.70669206252891925e+01 0.0 0.0
1 -1.68052245716224817e+01 0.0 0.0
1 4.20754511892874561e+01 0.0 0.0
1 1.47534892487104017e+01 0.0 0.0
1 1.22190541018927035e+00 0.0 0.0
1 1.88926538015640091e+01 0.0 0.0
8
Step 800
1 2.08181012553429312e+00 0.0 0.0
1 -1.94561518126598934e+01 0.0 0.0
1 2.59794342348293732e+01 0.0 0.0
1 -1.71116193619163539e+01 0.0 0.0
1 3.49149884858732662e+01 0.0 0.0
1 2.08048762197782651e+01 0.0 0.0
1 -3.09772341804142748e+00 0.0 0.0
1 2.03974489900350271e+01 0.0 0.0
8
Step 810
1 -3.21196844741777721e+00 0.0 0.0
1 -1.68764216369690701e+01 0.0 0.0
1 2.42296035610264120e+01 0.0 0.0
1 -1.70566177241913479e+01 0.0 0.0
1 2.70763801419443979e+01 0.0 0.0
1 2.65813835077887290e+01 0.0 0.0
1 -7.44972594300432611e+00 0.0 0.0
1 2.16831912607629818e+01 0.0 0.0
8
Step 820
1 -8.30011991405793381e+00 0.0 0.0
1 -1.43911065756565399e+01 0.0 0.0
1 2.18370731820215731e+01 0.0 0.0
1 -1.66638726640493751e+01 0.0 0.0
1 1.86775705396272009e+01 0.0 0.0
1 3.20518926506493003e+01 0.0 0.0
1 -1.17559768479506950e+01 0.0 0.0
1 2.27491041939794840e+01 0.0 0.0
8
Step 830
1 -1.31456582897389147e+01 0.0 0.0
1 -1.20001958150888868e+01 0.0 0.0
1 1.88321253980741403e+01 0.0 0.0
1 -1.59611402888100091e+01 0.0 0.0
1 9.84571016644060215e+00 0.0 0.0
1 3.71881444046822480e+01 0.0 0.0
1 -1.59405284786720234e+01 0.0 0.0
1 2.35968994873027640e+01 0.0 0.0
8
Step 840
1 -1.77168388992971302e+01 0.0 0.0
1 -9.69923379284197651e+00 0.0 0.0
1 1.52544324084028542e+01 0.0 0.0
1 -1.49797819995110260e+01 0.0 0.0
1 7.15542769046704885e-01 0.0 0.0
1 4.19648567463928259e+01 0.0 0.0
1 -1.99308114439758377e+01 0.0 0.0
1 2.42305542144381292e+01 0.0 0.0
8
Step 850
1 -2.19868949221551482e+01 0.0 0.0
1 -7.47941568847001559e+00 0.0 0.0
1 1.11516624509337383e+01 0.0 0.0
1 -1.37541621628986732e+01 0.0 0.0
1 -8.57247174049911287e+00 0.0 0.0
1 4.63598548662730821e+01 0.0 0.0
1 -2.36588250895418106e+01 0.0 0.0
1 2.46560660117469261e+01 0.0 0.0
8
Step 860
1 -2.59335132293210506e+01 0.0 0.0
1 -5.32794499182428449e+00 0.0 0.0
1 6.57800715044832884e+00 0.0 0.0
1 -1.23209463464094515e+01 0.0 0.0
1 -1.78742625927222392e+01 0.0 0.0
1 5.03542008601242728e+01 0.0 0.0
1 -2.70622836271613707e+01 0.0 0.0
1 2.48811908605226435e+01 0.0 0.0
8
Step 870
1 -2.95381455859528685e+01 0.0 0.0
1 -3.22861126862428094e+00 0.0 0.0
1 1.59268910497054095e+00 0.0 0.0
1 -1.07183227597881796e+01 0.0 0.0
1 -2.70444192769961163e+01 0.0 0.0
1 5.39323073898497114e+01 0.0 0.0
1 -3.00856722084705268e+01 0.0 0.0
1 2.49151687825940868e+01 0.0 0.0
8
Step 880
1 -3.27852909480259811e+01 0.0 0.0
1 -1.16251179855964515e+00 0.0 0.0
1 -3.74148632934208258e+00 0.0 0.0
1 -8.98518139051761189e+00 0.0 0.0
1 -3.59385531866393748e+01 0.0 0.0
1 5.70820195354198106e+01 0.0 0.0
1 -3.26811626503529524e+01 0.0 0.0
1 2.47684431930574398e+01 0.0 0.0
8
Step 890
1 -3.56618965612628642e+01 0.0 0.0
1 8.91164491926835112e-01 0.0 0.0
1 -9.35945670121240347e+00 0.0 0.0
1 -7.16029077323335628e+00 0.0 0.0
1 -4.44156733480393910e+01 0.0 0.0
1 5.97946516256685072e+01 0.0 0.0
1 -3.48093436202104272e+01 0.0 0.0
1 2.44523798673092969e+01 0.0 0.0
8
Step 900
1 -3.81570066715943312e+01 0.0 0.0
1 2.95435350047041823e+00 0.0 0.0
1 -1.51950154905314267e+01 0.0 0.0
1 -5.28151173732531731e+00 0.0 0.0
1 -5.23405066476486809e+01 0.0 0.0
1 6.20649696346763164e+01 0.0 0.0
1 -3.64397333377881054e+01 0.0 0.0
1 2.39789915129897970e+01 0.0 0.0
8
Step 910
1 -4.02617413664833350e+01 0.0 0.0
1 5.04936571715385085e+00 0.0 0.0
1 -2.11816288981888015e+01 0.0 0.0
1 -3.38508136850953312e+00 0.0 0.0
1 -5.95857042571696454e+01 0.0 0.0
1 6.38911134013055246e+01 0.0 0.0
1 -3.75510598050563331e+01 0.0 0.0
1 2.33606738231527480e+01 0.0 0.0
8
Step 920
1 -4.19696218142621120e+01 0.0 0.0
1 7.19817539218155300e+00 0.0 0.0
1 -2.72529088581721943e+01 0.0 0.0
1 -1.50498976233552173e+00 0.0 0.0
1 -6.60338889184209137e+01 0.0 0.0
1 6.52744559363885770e+01 0.0 0.0
1 -3.81313096640864799e+01 0.0 0.0
1 2.26099586370871002e+01 0.0 0.0
8
Step 930
1 -4.32771835088811514e+01 0.0 0.0
1 9.42174050003444030e+00 0.0 0.0
1 -3.33427594750496539e+01 0.0 0.0
1 3.27541016672064034e-01 0.0 0.0
1 -7.15795103553639365e+01 0.0 0.0
1 6.62194000264552329e+01 0.0 0.0
1 -3.81775594808760417e+01 0.0 0.0
1 2.17392894215804091e+01 0.0 0.0
8
Step 940
1 -4.41847532259595752e+01 0.0 0.0
1 1.17393442576792122e+01 0.0 0.0
1 -3.93852901550898977e+01 0.0 0.0
1 2.08447878429006650e+00 0.0 0.0
1 -7.61304866352376735e+01 0.0 0.0
1 6.67331163890348620e+01 0.0 0.0
1 -3.76956125431292932e+01 0.0 0.0
1 2.07608236363786212e+01 0.0 0.0
8
Step 950
1 -4.46972283317398364e+01 0.0 0.0
1 1.41679580011289517e+01 0.0 0.0
1 -4.53146471082394555e+01 0.0 0.0
1 3.74131512148269785e+00 0.0 0.0
1 -7.96096162709878286e+01 0.0 0.0
1 6.68252333932694853e+01 0.0 0.0
1 -3.66994715712383694e+01 0.0 0.0
1 1.96862655876087089e+01 0.0 0.0
8
Step 960
1 -4.48247026093529897e+01 0.0 0.0
1 1.67216362457307639e+01 0.0 0.0
1 -5.10649298483877061e+01 0.0 0.0
1 5.27732448411825139e+00 0.0 0.0
1 -8.19557481915715726e+01 0.0 0.0
1 6.65074951208321608e+01 0.0 0.0
1 -3.52106843854737903e+01 0.0 0.0
1 1.85267320990861926e+01 0.0 0.0
8
Step 970
1 -4.45828284393968772e+01 0.0 0.0
1 1.94109609366268892e+01 0.0 0.0
1 -5.65703243267650677e+01 0.0 0.0
1 6.67575801843192096e+00 0.0 0.0
1 -8.31246945993915034e+01 0.0 0.0
1 6.57934105118933701e+01 0.0 0.0
1 -3.32576055862530779e+01 0.0 0.0
1 1.72926518699454022e+01 0.0 0.0
8
Step 980
1 -4.39928715678648103e+01 0.0 0.0
1 2.22425506942439668e+01 0.0 0.0
1 -6.17655166946680154e+01 0.0 0.0
1 7.92397500883914940e+00 0.0 0.0
1 -8.30898674252754574e+01 0.0 0.0
1 6.46979196287957166e+01 0.0 0.0
1 -3.08746210149072446e+01 0.0 0.0
1 1.59936979674374982e+01 0.0 0.0
8
Step 990
1 -4.30814761043592043e+01 0.0 0.0
1 2.52186445287648873e+01 0.0 0.0
1 -6.65863808988755608e+01 0.0 0.0
1 9.01350886081239011e+00 0.0 0.0
1 -8.18426170108875510e+01 0.0 0.0
1 6.32371025368288713e+01 0.0 0.0
1 -2.81013800342343174e+01 0.0 0.0
1 1.46387517540610119e+01 0.0 0.0
8
Step 1000
1 -4.18801956237658075e+01 0.0 0.0
1 2.83367627896969729e+01 0.0 0.0
1 -7.09708832727076384e+01 0.0 0.0
1 9.94006128434288350e+00 0.0 0.0
1 -7.93922572113237663e+01 0.0 0.0
1 6.14279517335579186e+01 0.0 0.0
1 -2.49820700493263352e+01 0.0 0.0
1 1.32358957845021727e+01 0.0 0.0
8
Step 1010
1 -4.04248572126250920e+01 0.0 0.0
1 3.15894452334287088e+01 0.0 0.0
1 -7.48601260684834386e+01 0.0 0.0
1 1.07034184531980490e+01 0.0 0.0
1 -7.57657779678143584e+01 0.0 0.0
1 5.92882209793777761e+01 0.0 0.0
1 -2.15647468058208140e+01 0.0 0.0
1 1.17924327911549636e+01 0.0 0.0
8
Step 1020
1 -3.87548161430801343e+01 0.0 0.0
1 3.49640688800313626e+01 0.0 0.0
1 -7.81994534692371559e+01 0.0 0.0
1 1.13072856964165194e+01 0.0 0.0
1 -7.10072730740645852e+01 0.0 0.0
1 5.68363530184825620e+01 0.0 0.0
1 -1.79007065869039721e+01 0.0 0.0
1 1.03149276538027923e+01 0.0 0.0
8
Step 1030
1 -3.69121408490098659e+01 0.0 0.0
1 3.84427560903781895e+01 0.0 0.0
1 -8.09395560360122630e+01 0.0 0.0
1 1.17590415730740130e+01 0.0 0.0
1 -6.51771389887728105e+01 0.0 0.0
1 5.40914780062145653e+01 0.0 0.0
1 -1.40438626073401434e+01 0.0 0.0
1 8.80926904424497259e+00 0.0 0.0
8
Step 1040
1 -3.49407509297726264e+01 0.0 0.0
1 4.20023933535131775e+01 0.0 0.0
1 -8.30375220848357714e+01 0.0 0.0