8
Step 0
1 -8.19206160314889189e+01 0.0 0.0
1 1.17668904556741950e+02 0.0 0.0
1 -2.97033021598792288e+01 0.0 0.0
1 -7.93215895090458929e+01 0.0 0.0
1 1.05023888631320204e+02 0.0 0.0
1 1.14341465972535332e+02 0.0 0.0
1 7.67622396710342514e+01 0.0 0.0
1 -1.29821115290509368e+02 0.0 0.0
8
Step 10
1 -7.30114256349430661e+01 0.0 0.0
1 1.18735288024885634e+02 0.0 0.0
1 -3.04287468300456254e+01 0.0 0.0
1 -7.86428141269897338e+01 0.0 0.0
1 1.07566822066149669e+02 0.0 0.0
1 1.13958477416538344e+02 0.0 0.0
1 8.35599220358578094e+01 0.0 0.0
1 -1.34117308248714522e+02 0.0 0.0
8
Step 20
1 -6.34856040334461724e+01 0.0 0.0
1 1.19287761433560377e+02 0.0 0.0
1 -3.06835015695126714e+01 0.0 0.0
1 -7.64765788340082793e+01 0.0 0.0
1 1.08678791581159231e+02 0.0 0.0
1 1.12055719308437233e+02 0.0 0.0
1 8.97397768555137390e+01 0.0 0.0
1 -1.37480732780706774e+02 0.0 0.0
8
Step 30
1 -5.34150846804583210e+01 0.0 0.0
1 1.19287763570926600e+02 0.0 0.0
1 -3.04463050550537631e+01 0.0 0.0
1 -7.28621672127930822e+01 0.0 0.0
1 1.08343490349529773e+02 0.0 0.0
1 1.08681917927488172e+02 0.0 0.0
1 9.52350795491547473e+01 0.0 0.0
1 -1.39858240072398559e+02 0.0 0.0
8
Step 40
1 -4.28792327002934641e+01 0.0 0.0
1 1.18698591713368586e+02 0.0 0.0
1 -2.97012953845073007e+01 0.0 0.0
1 -6.78625135275189137e+01 0.0 0.0
1 1.06565566942257988e+02 0.0 0.0
1 1.03907149321437757e+02 0.0 0.0
1 9.99882794021781507e+01 0.0 0.0
1 -1.41205152578351147e+02 0.0 0.0
8
Step 50
1 -3.19642304567449678e+01 0.0 0.0
1 1.17486131009365096e+02 0.0 0.0
1 -2.84383264611882609e+01 0.0 0.0
1 -6.15635094611065057e+01 0.0 0.0
1 1.03370595726764421e+02 0.0 0.0
1 9.78220895522292864e+01 0.0 0.0
1 1.03951545144295849e+02 0.0 0.0
1 -1.41486258408514402e+02 0.0 0.0
8
Step 60
1 -2.07623503636855489e+01 0.0 0.0
1 1.15619674091243226e+02 0.0 0.0
1 -2.66532821127624864e+01 0.0 0.0
1 -5.40730633128906746e+01 0.0 0.0
1 9.88048941809006465e+01 0.0 0.0
1 9.05370752128774967e+01 0.0 0.0
1 1.07087289624452808e+02 0.0 0.0
1 -1.40676859321501439e+02 0.0 0.0
8
Step 70
1 -9.37107819663789954e+00 0.0 0.0
1 1.13072813878276463e+02 0.0 0.0
1 -2.43483721850290920e+01 0.0 0.0
1 -4.55198550479703599e+01 0.0 0.0
1 9.29351415788469666e+01 0.0 0.0
1 8.21809178544390591e+01 0.0 0.0
1 1.09368665051206392e+02 0.0 0.0
1 -1.38763837084789998e+02 0.0 0.0
8
Step 80
1 2.10794415567555626e+00 0.0 0.0
1 1.09824380759992252e+02 0.0 0.0
1 -2.15323875278610117e+01 0.0 0.0
1 -3.60517241832738975e+01 0.0 0.0
1 8.58477384654839852e+01 0.0 0.0
1 7.28994096657281858e+01 0.0 0.0
1 1.10780004664310994e+02 0.0 0.0
1 -1.35746684453175646e+02 0.0 0.0
8
Step 90
1 1.35701759420396080e+01 0.0 0.0
1 1.05859384328575828e+02 0.0 0.0
1 -1.82208855610352281e+01 0.0 0.0
1 -2.58336331056462889e+01 0.0 0.0
1 7.76478407104790165e+01 0.0 0.0
1 6.28534627590251134e+01 0.0 0.0
1 1.11317173548903526e+02 0.0 0.0
1 -1.31638431936434330e+02 0.0 0.0
8
Step 100
1 2.49096374082896936e+01 0.0 0.0
1 1.01169911066328780e+02 0.0 0.0
1 -1.44362758971728908e+01 0.0 0.0
1 -1.50451666239792505e+01 0.0 0.0
1 6.84580074497136479e+01 0.0 0.0
1 5.22168411897320439e+01 0.0 0.0
1 1.10987782502209981e+02 0.0 0.0
1 -1.26466392241659605e+02 0.0 0.0
8
Step 110
1 3.60205543528959993e+01 0.0 0.0
1 9.57559244009844974e+01 0.0 0.0
1 -1.02077769847908542e+01 0.0 0.0
1 -3.87755823792968890e+00 0.0 0.0
1 5.84164192984211397e+01 0.0 0.0
1 4.11734722960302832e+01 0.0 0.0
1 1.09811215975135326e+02 0.0 0.0
1 -1.20272642803410221e+02 0.0 0.0
8
Step 120
1 4.67991475607598417e+01 0.0 0.0
1 8.96259135687830479e+01 0.0 0.0
1 -5.57122017681223181e+00 0.0 0.0
1 7.46972821159451961e+00 0.0 0.0
1 4.76746506564049284e+01 0.0 0.0
1 2.99143593278862454e+01 0.0 0.0
1 1.07818429069127006e+02 0.0 0.0
1 -1.13114174399765062e+02 0.0 0.0
8
Step 130
1 5.71455068358549596e+01 0.0 0.0
1 8.27973434682416922e+01 0.0 0.0
1 -5.68686739205116698e-01 0.0 0.0
1 1.87927908010360909e+01 0.0 0.0
1 3.63950148171627603e+01 0.0 0.0
1 1.86341563638862660e+01 0.0 0.0
1 1.05051479416386243e+02 0.0 0.0
1 -1.05062650575761552e+02 0.0 0.0
8
Step 140
1 6.69654732844173282e+01 0.0 0.0
1 7.52968690515613446e+01 0.0 0.0
1 4.75202479448402304e+00 0.0 0.0
1 2.98873448188994644e+01 0.0 0.0
1 2.47475385833818216e+01 0.0 0.0
1 7.52750390095850985e+00 0.0 0.0
1 1.01562776523980460e+02 0.0 0.0
1 -9.62037471495723366e+01 0.0 0.0
8
Step 150
1 7.61724443770923330e+01 0.0 0.0
1 6.71602937959389408e+01 0.0 0.0
1 1.03380902501272853e+01 0.0 0.0
1 4.05528978796305140e+01 0.0 0.0
1 1.29066589737247419e+01 0.0 0.0
1 -3.21474623086480271e+00 0.0 0.0
1 9.74140518527174208e+01 0.0 0.0
1 -8.66360708009344620e+01 0.0 0.0
8
Step 160
1 8.46890157943396247e+01 0.0 0.0
1 5.84322706148340032e+01 0.0 0.0
1 1.61324868364451248e+01 0.0 0.0
1 5.05968821880898147e+01 0.0 0.0
1 1.04776318345650332e+00 0.0 0.0
1 -1.34092695207530355e+01 0.0 0.0
1 9.26750748397454913e+01 0.0 0.0
1 -7.64696869588671007e+01 0.0 0.0
8
Step 170
1 9.24483825256357221e+01 0.0 0.0
1 4.91657628391232606e+01 0.0 0.0
1 2.20749211899751181e+01 0.0 0.0
1 5.98385779467205481e+01 0.0 0.0
1 -1.06562900099257654e+01 0.0 0.0
1 -2.28838202467099663e+01 0.0 0.0
1 8.74221602811540635e+01 0.0 0.0
1 -6.58243158110399378e+01 0.0 0.0
8
Step 180
1 9.93954381543697707e+01 0.0 0.0
1 3.94213000820671340e+01 0.0 0.0
1 2.81028168929960316e+01 0.0 0.0
1 6.81126753767780286e+01 0.0 0.0
1 -2.20385262148402497e+01 0.0 0.0
1 -3.14804568864620080e+01 0.0 0.0
1 8.17365282204540620e+01 0.0 0.0
1 -5.48272774366460922e+01 0.0 0.0
8
Step 190
1 1.05487533489272408e+02 0.0 0.0
1 2.92660766407986408e+01 0.0 0.0
1 3.41523173056682339e+01 0.0 0.0
1 7.52723511485512375e+01 0.0 0.0
1 -3.29409589003930989e+01 0.0 0.0
1 -3.90583282216327561e+01 0.0 0.0
1 7.57025867142903763e+01 0.0 0.0
1 -4.36112799885347826e+01 0.0 0.0
8
Step 200
1 1.10694880641339310e+02 0.0 0.0
1 1.87729470002257983e+01 0.0 0.0
1 4.01592617415131059e+01 0.0 0.0
1 8.11917739034779231e+01 0.0 0.0
1 -4.32173341461647098e+01 0.0 0.0
1 -4.54959423793502964e+01 0.0 0.0
1 6.94062096082938211e+01 0.0 0.0
1 -3.23121471785405845e+01 0.0 0.0
8
Step 210
1 1.15000612960834090e+02 0.0 0.0
1 8.01937335763511783e+00 0.0 0.0
1 4.60600994957582941e+01 0.0 0.0
1 8.57679972477627928e+01 0.0 0.0
1 -5.27354425838236551e+01 0.0 0.0
1 -5.06928811432155939e+01 0.0 0.0
1 6.29330759890674969e+01 0.0 0.0
1 -2.10665734092461392e+01 0.0 0.0
8
Step 220
1 1.18400531925287737e+02 0.0 0.0
1 -2.91362573435293637e+00 0.0 0.0
1 5.17927158789466517e+01 0.0 0.0
1 8.89222409608357935e+01 0.0 0.0
1 -6.13789602369194256e+01 0.0 0.0
1 -5.45709608962062376e+01 0.0 0.0
1 5.63671266041155050e+01 0.0 0.0
1 -1.00099786698861202e+01 0.0 0.0
8
Step 230
1 1.20902586896020850e+02 0.0 0.0
1 -1.39424872115276717e+01 0.0 0.0
1 5.72971556858473861e+01 0.0 0.0
1 9.06005967661895681e+01 0.0 0.0
1 -6.90488143821303879e+01 0.0 0.0
1 -5.70748745040934722e+01 0.0 0.0
1 4.97891773560541395e+01 0.0 0.0
1 7.25486159537855002e-01 0.0 0.0
8
Step 240
1 1.22526141531556249e+02 0.0 0.0
1 -2.49820511035733546e+01 0.0 0.0
1 6.25162408005126622e+01 0.0 0.0
1 9.07742200224245863e+01 0.0 0.0
1 -7.56640993160008009e+01 0.0 0.0
1 -5.81723717174433830e+01 0.0 0.0
1 4.32757134203280529e+01 0.0 0.0
1 1.10127560746464450e+01 0.0 0.0
8
Step 250
1 1.23301081620239586e+02 0.0 0.0
1 -3.59464336419276549e+01 0.0 0.0
1 6.73960884233513724e+01 0.0 0.0
1 8.94390813554981605e+01 0.0 0.0
1 -8.11625871066954829e+01 0.0 0.0
1 -5.78540475665765328e+01 0.0 0.0
1 3.68978719408880309e+01 0.0 0.0
1 2.07314845553228082e+01 0.0 0.0
8
Step 260
1 1.23266814233968830e+02 0.0 0.0
1 -4.67498288122157462e+01 0.0 0.0
1 7.18865436027366655e+01 0.0 0.0
1 8.66153529425980935e+01 0.0 0.0
1 -8.55008888159795930e+01 0.0 0.0
1 -5.61328090006876650e+01 0.0 0.0
1 3.07206084822269574e+01 0.0 0.0
1 2.97695024481482911e+01 0.0 0.0
8
Step 270
1 1.22471199158318470e+02 0.0 0.0
1 -5.73072515801228448e+01 0.0 0.0
1 7.59415437527646020e+01 0.0 0.0
1 8.23464950301915479e+01 0.0 0.0
1 -8.86543227139280390e+01 0.0 0.0
1 -5.30430815819681314e+01 0.0 0.0
1 2.48020336073532874e+01 0.0 0.0
1 3.80241238133631470e+01 0.0 0.0
8
Step 280
1 1.20969442571344089e+02 0.0 0.0
1 -6.75352423288737782e+01 0.0 0.0
1 7.95194335398629875e+01 0.0 0.0
1 7.66980926651644239e+01 0.0 0.0
1 -9.06165394262183668e+01 0.0 0.0
1 -4.86398034012022578e+01 0.0 0.0
1 1.91929014834981899e+01 0.0 0.0
1 4.54033226841272821e+01 0.0 0.0
8
Step 290
1 1.18822971913213451e+02 0.0 0.0
1 -7.73525539596665226e+01 0.0 0.0
1 8.25832462652110024e+01 0.0 0.0
1 6.97564743763725090e+01 0.0 0.0
1 -9.13989423449777547e+01 0.0 0.0
1 -4.29972360325398881e+01 0.0 0.0
1 1.39362319661184699e+01 0.0 0.0
1 5.18268014275472026e+01 0.0 0.0
8
Step 300
1 1.16098301461908648e+02 0.0 0.0
1 -8.66808408024315611e+01 0.0 0.0
1 8.51009633246414694e+01 0.0 0.0
1 6.16271273613108548e+01 0.0 0.0
1 -9.10299279183978030e+01 0.0 0.0
1 -3.62076056975637499e+01 0.0 0.0
1 9.06705032724776139e+00 0.0 0.0
1 5.72269629766645593e+01 0.0 0.0
8
Step 310
1 1.12865891450068929e+02 0.0 0.0
1 -9.54453626316960566e+01 0.0 0.0
1 8.70457573561367752e+01 0.0 0.0
1 5.24329106689824300e+01 0.0 0.0
1 -8.95539573957727271e+01 0.0 0.0
1 -2.83795747199123340e+01 0.0 0.0
1 4.61223351622050526e+00 0.0 0.0
1 6.15497875481811079e+01 0.0 0.0
8
Step 320
1 1.09199000198360110e+02 0.0 0.0
1 -1.03575708706000029e+02 0.0 0.0
1 8.83962182261685854e+01 0.0 0.0
1 4.23120610244631976e+01 0.0 0.0
1 -8.70304615419081387e+01 0.0 0.0
1 -1.96365358320762304e+01 0.0 0.0
1 5.90457310114300249e-01 0.0 0.0
1 6.47556017711783198e+01 0.0 0.0
8
Step 330
1 1.05172528724437555e+02 0.0 0.0
1 -1.11006537095781795e+02 0.0 0.0
1 8.91365549741466339e+01 0.0 0.0
1 3.14159862885154695e+01 0.0 0.0
1 -8.35325743333151678e+01 0.0 0.0
1 -1.01147209546673835e+01 0.0 0.0
1 -2.98775624979346821e+00 0.0 0.0
1 6.68197166173227828e+01 0.0 0.0
8
Step 340
1 1.00861860159161907e+02 0.0 0.0
1 -1.17678314973104563e+02 0.0 0.0
1 8.92567620365987295e+01 0.0 0.0
1 1.99068489106796420e+01 0.0 0.0
1 -7.91456914623663152e+01 0.0 0.0
1 3.88783218387425133e-02 0.0 0.0
1 -6.11988808881755730e+00 0.0 0.0
1 6.77329020768466137e+01 0.0 0.0
8
Step 350
1 9.63417012393717016e+01 0.0 0.0
1 -1.23538037311375746e+02 0.0 0.0
1 8.87527351408082126e+01 0.0 0.0
1 7.95495487413098257e+00 0.0 0.0
1 -7.39658545030445822e+01 0.0 0.0
1 1.06687701619898831e+01 0.0 0.0
1 -8.81116333138936980e+00 0.0 0.0
1 6.75016626323388920e+01 0.0 0.0
8
Step 360
1 9.16849390869115837e+01 0.0 0.0
1 -1.28539895722480765e+02 0.0 0.0
1 8.76263215864924945e+01 0.0 0.0
1 -4.26401957351449035e+00 0.0 0.0
1 -6.80979709352755975e+01 0.0 0.0
1 2.16133785310351811e+01 0.0 0.0
1 -1.10741805563166480e+01 0.0 0.0
1 6.61482790676648733e+01 0.0 0.0
8
Step 370
1 8.69615322740151555e+01 0.0 0.0
1 -1.32645866781576188e+02 0.0 0.0
1 8.58852913343287128e+01 0.0 0.0
1 -1.65719133606501927e+01 0.0 0.0
1 -6.16538923326649737e+01 0.0 0.0
1 3.27075763349710300e+01 0.0 0.0
1 -1.29284279785064804e+01 0.0 0.0
1 6.37105890761252098e+01 0.0 0.0
8
Step 380
1 8.22374597299862415e+01 0.0 0.0
1 -1.35826190576171030e+02 0.0 0.0
1 8.35432191924769256e+01 0.0 0.0
1 -2.87910123653301575e+01 0.0 0.0
1 -5.47503859100969592e+01 0.0 0.0
1 4.37852811715554537e+01 0.0 0.0
1 -1.43996900791335491e+01 0.0 0.0
1 6.02414907691632493e+01 0.0 0.0
8
Step 390
1 7.75737534984553321e+01 0.0 0.0
1 -1.38059715284693198e+02 0.0 0.0
1 8.06192739378328582e+01 0.0 0.0
1 -4.07469505131839043e+01 0.0 0.0
1 -4.75070461865860239e+01 0.0 0.0
1 5.46820480173701711e+01 0.0 0.0
1 -1.55193538251325620e+01 0.0 0.0
1 5.58081680817226058e+01 0.0 0.0
8
Step 400
1 7.30256411919319248e+01 0.0 0.0
1 -1.39334091740094493e+02 0.0 0.0
1 7.71379166846635087e+01 0.0 0.0
1 -5.22714986478546138e+01 0.0 0.0
1 -4.00442018225133580e+01 0.0 0.0
1 6.52375876898874481e+01 0.0 0.0
1 -1.63236293486333750e+01 0.0 0.0
1 5.04910532425226464e+01 0.0 0.0
8
Step 410
1 6.86418211212382374e+01 0.0 0.0
1 -1.39645812112531871e+02 0.0 0.0
1 7.31285173339189072e+01 0.0 0.0
1 -6.32051626971093299e+01 0.0 0.0
1 -3.24808763246105627e+01 0.0 0.0
1 7.52981412110013508e+01 0.0 0.0
1 -1.68527048998931761e+01 0.0 0.0
1 4.43825567196059225e+01 0.0 0.0
8
Step 420
1 6.44638878469429670e+01 0.0 0.0
1 -1.39000097694989392e+02 0.0 0.0
1 6.86249036080600803e+01 0.0 0.0
1 -7.33995231430593691e+01 0.0 0.0
1 -2.49328596077779920e+01 0.0 0.0
1 8.47186482636388689e+01 0.0 0.0
1 -1.71498592889991741e+01 0.0 0.0
1 3.75856072892934492e+01 0.0 0.0
8
Step 430
1 6.05259190192645136e+01 0.0 0.0
1 -1.37410650850119595e+02 0.0 0.0
1 6.36648612403774408e+01 0.0 0.0
1 -8.27192643292859344e+01 0.0 0.0
1 -1.75109405426982185e+01 0.0 0.0
1 9.33646617124382914e+01 0.0 0.0
1 -1.72605564071355779e+01 0.0 0.0
1 3.02120525205295003e+01 0.0 0.0
8
Step 440
1 5.68542267830272223e+01 0.0 0.0
1 -1.34899294174491786e+02 0.0 0.0
1 5.82896058444731366e+01 0.0 0.0
1 -9.10438624187640073e+01 0.0 0.0
1 -1.03193395837585324e+01 0.0 0.0
1 1.01113977719412730e+02 0.0 0.0
1 -1.72315456268749330e+01 0.0 0.0
1 2.23809721780999880e+01 0.0 0.0
8
Step 450
1 5.34672697200988836e+01 0.0 0.0
1 -1.31495524910673481e+02 0.0 0.0
1 5.25432466716374478e+01 0.0 0.0
1 -9.82689220843495548e+01 0.0 0.0
1 -3.45436694038417791e+00 0.0 0.0
1 1.07857969882094508e+02 0.0 0.0
1 -1.71099891341137749e+01 0.0 0.0
1 1.42169538620484559e+01 0.0 0.0
8
Step 460
1 5.03757151549911057e+01 0.0 0.0
1 -1.27236014130967447e+02 0.0 0.0
1 4.64722600467676799e+01 0.0 0.0
1 -1.04307171510593179e+02 0.0 0.0
1 2.99668260742426362e+00 0.0 0.0
1 1.13502633543942409e+02 0.0 0.0
1 -1.69426330456836745e+01 0.0 0.0
1 5.84837247617561573e+00 0.0 0.0
8
Step 470
1 4.75826372676397824e+01 0.0 0.0
1 -1.22164078299363325e+02 0.0 0.0
1 4.01249862209916230e+01 0.0 0.0
1 -1.09089140731346689e+02 0.0 0.0
1 8.95640042682208382e+00 0.0 0.0
1 1.17969360823837604e+02 0.0 0.0
1 -1.67750342018946199e+01 0.0 0.0
1 -2.59429566128910594e+00 0.0 0.0
8
Step 480
1 4.50838341077758571e+01 0.0 0.0
1 -1.16329146025972477e+02 0.0 0.0
1 3.35511583408349381e+01 0.0 0.0
1 -1.12563558251471889e+02 0.0 0.0
1 1.43579131878858242e+01 0.0 0.0
1 1.21195476512764003e+02 0.0 0.0
1 -1.66508495257540581e+01 0.0 0.0
1 -1.09801052796934524e+01 0.0 0.0
8
Step 490
1 4.28682462107016420e+01 0.0 0.0
1 -1.09786236024954036e+02 0.0 0.0
1 2.68014669220172408e+01 0.0 0.0
1 -1.14697504786719435e+02 0.0 0.0
1 1.91453306152370892e+01 0.0 0.0
1 1.23134569159001387e+02 0.0 0.0
1 -1.66111904651249880e+01 0.0 0.0
1 -1.91792138733231248e+01 0.0 0.0
8
Step 500
1 4.09184607142255317e+01 0.0 0.0
1 -1.02595454492907194e+02 0.0 0.0
1 1.99271582914634173e+01 0.0 0.0
1 -1.15476361195334107e+02 0.0 0.0
1 2.32740154609033318e+01 0.0 0.0
1 1.23756650600718132e+02 0.0 0.0
1 -1.66940417623988360e+01 0.0 0.0
1 -2.70643947322662974e+01 0.0 0.0
8
Step 510
1 3.92112871284428479e+01 0.0 0.0
1 -9.48215123505899129e+01 0.0 0.0
1 1.29796614490340652e+01 0.0 0.0
1 -1.14903581374751454e+02 0.0 0.0
1 2.67106992564244727e+01 0.0 0.0
1 1.23048171772797232e+02 0.0 0.0
1 -1.69337418880111485e+01 0.0 0.0
1 -3.45124995556175804e+01 0.0 0.0
8
Step 520
1 3.77183936035000258e+01 0.0 0.0
1 -8.65332559105021915e+01 0.0 0.0
1 6.01023504739815362e+00 0.0 0.0
1 -1.13000311607721727e+02 0.0 0.0
1 2.94334644788894764e+01 0.0 0.0
1 1.21011914124445468e+02 0.0 0.0
1 -1.73605219628629186e+01 0.0 0.0
1 -4.14058814250435105e+01 0.0 0.0
8
Step 530
1 3.64069950996296257e+01 0.0 0.0
1 -7.78031992088298239e+01 0.0 0.0
1 -9.30375142399497257e-01 0.0 0.0
1 -1.09804867281897458e+02 0.0 0.0
1 3.14316089228162987e+01 0.0 0.0
1 1.17666765949581929e+02 0.0 0.0
1 -1.80001007187573059e+01 0.0 0.0
1 -4.76337877059088015e+01 0.0 0.0
8
Step 540
1 3.52405868234941337e+01 0.0 0.0
1 -6.87070428987782691e+01 0.0 0.0
1 -7.79227781901217131e+00 0.0 0.0
1 -1.05372067726093320e+02 0.0 0.0
1 3.27054023347107901e+01 0.0 0.0
1 1.13047382860049240e+02 0.0 0.0
1 -1.88733346994331228e+01 0.0 0.0
1 -5.30937279328371545e+01 0.0 0.0
8
Step 550
1 3.41797173456470773e+01 0.0 0.0
1 -5.93231634438056119e+01 0.0 0.0
1 -1.45267849402787874e+01 0.0 0.0
1 -9.97724215224698412e+01 0.0 0.0
1 3.32657397212278951e+01 0.0 0.0
1 1.07203722868367535e+02 0.0 0.0
1 -1.99959250948437948e+01 0.0 0.0
1 -5.76928146796372161e+01 0.0 0.0
8
Step 560
1 3.31827958183085485e+01 0.0 0.0
1 -4.97320573749566321e+01 0.0 0.0
1 -2.10867733906678509e+01 0.0 0.0
1 -9.30911491493889969e+01 0.0 0.0
1 3.31336910248432019e+01 0.0 0.0
1 1.00200440179173867e+02 0.0 0.0
1 -2.13781849023927819e+01 0.0 0.0
1 -6.13490667863884909e+01 0.0 0.0
8
Step 570
1 3.22069267007417395e+01 0.0 0.0
1 -4.00157284170399308e+01 0.0 0.0
1 -2.74270619371133328e+01 0.0 0.0
1 -8.54270278795746805e+01 0.0 0.0
1 3.23399437113554953e+01 0.0 0.0
1 9.21161185881197753e+01 0.0 0.0
1 -2.30248721094583537e+01 0.0 0.0
1 -6.39926552193512990e+01 0.0 0.0
8
Step 580
1 3.12087635494165774e+01 0.0 0.0
1 -3.02570100265649344e+01 0.0 0.0
1 -3.35048021535763141e+01 0.0 0.0
1 -7.68910457869876751e+01 0.0 0.0
1 3.09241336361386523e+01 0.0 0.0
1 8.30423257770739696e+01 0.0 0.0
1 -2.49350959338916880e+01 0.0 0.0
1 -6.55670634045862215e+01 0.0 0.0
8
Step 590
1 3.01453710381582134e+01 0.0 0.0
1 -2.05388218733293577e+01 0.0 0.0
1 -3.92798781610751320e+01 0.0 0.0
1 -6.76048573734202165e+01 0.0 0.0
1 2.89340605070401509e+01 0.0 0.0
1 7.30824738306371700e+01 0.0 0.0
1 -2.71023035720733354e+01 0.0 0.0
1 -6.60301271777844789e+01 0.0 0.0
8
Step 600
1 2.89750818159025805e+01 0.0 0.0
1 -1.09433654812741370e+01 0.0 0.0
1 -4.47153064644005198e+01 0.0 0.0
1 -5.76990421813048897e+01 0.0 0.0
1 2.64247872475321905e+01 0.0 0.0
1 6.23504786625123160e+01 0.0 0.0
1 -2.95143542299415742e+01 0.0 0.0
1 -6.53549154517468907e+01 0.0 0.0
8
Step 610
1 2.76583324973116262e+01 0.0 0.0
1 -1.55127098854685297e+00 0.0 0.0
1 -4.97776242269649032e+01 0.0 0.0
1 -4.73111789203057072e+01 0.0 0.0
1 2.34576272540815260e+01 0.0 0.0
1 5.09692210523687947e+01 0.0 0.0
1 -3.21536854260587575e+01 0.0 0.0
1 -6.35304119894056427e+01 0.0 0.0
8
Step 620
1 2.61584614087591092e+01 0.0 0.0
1 7.55928687308635805e+00 0.0 0.0
1 -5.44372523229847758e+01 0.0 0.0
1 -3.65837599235926874e+01 0.0 0.0
1 2.00990294027354324e+01 0.0 0.0
1 3.90688236629060412e+01 0.0 0.0
1 -3.49975737720993720e+01 0.0 0.0
1 -6.05619616139764290e+01 0.0 0.0
8
Step 630
1 2.44424500050527342e+01 0.0 0.0
1 1.63134805745642559e+01 0.0 0.0
1 -5.86688186713008832e+01 0.0 0.0
1 -2.56619828177055069e+01 0.0 0.0
1 1.64193770092003426e+01 0.0 0.0
1 2.67847705177723867e+01 0.0 0.0
1 -3.80184889018152674e+01 0.0 0.0
1 -5.64714507137858917e+01 0.0 0.0
8
Step 640
1 2.24815903415355507e+01 0.0 0.0
1 2.46407032115613234e+01 0.0 0.0
1 -6.24514278022443037e+01 0.0 0.0
1 -1.46914667737851925e+01 0.0 0.0
1 1.24917230313007419e+01 0.0 0.0
1 1.42559066659338178e+01 0.0 0.0
1 -4.11845352870500818e+01 0.0 0.0
1 -5.12972015084354140e+01 0.0 0.0
8
Step 650
1 2.02520626941898918e+01 0.0 0.0
1 3.24753963630036608e+01 0.0 0.0
1 -6.57688643149687522e+01 0.0 0.0
1 -3.81594839975455358e+00 0.0 0.0
1 8.39048889290193856e+00 0.0 0.0
1 1.62236489581774168e+00 0.0 0.0
1 -4.44599727638782127e+01 0.0 0.0
1 -4.50935713514512102e+01 0.0 0.0
8
Step 660
1 1.77354102678697458e+01 0.0 0.0
1 3.97578063783483628e+01 0.0 0.0
1 -6.86097206820321475e+01 0.0 0.0
1 6.82498365532006535e+00 0.0 0.0
1 4.19015779412874956e+00 0.0 0.0
1 -1.09765276166600181e+01 0.0 0.0
1 -4.78058031158556105e+01 0.0 0.0
1 -3.79302611853941372e+01 0.0 0.0
8
Step 670
1 1.49189016709350799e+01 0.0 0.0
1 4.64346463484215946e+01 0.0 0.0
1 -7.09674434594653718e+01 0.0 0.0
1 1.70980564248388518e+01 0.0 0.0
1 -3.60051532230935001e-02 0.0 0.0
1 -2.34043075760111989e+01 0.0 0.0
1 -5.11804073952657390e+01 0.0 0.0
1 -2.98913498407299763e+01 0.0 0.0
8
Step 680
1 1.17957761007709827e+01 0.0 0.0
1 5.24596459791098368e+01 0.0 0.0
1 -7.28402959845457474e+01 0.0 0.0
1 2.68783278880108334e+01 0.0 0.0
1 -4.21717431439629920e+00 0.0 0.0
1 -3.55293452669847909e+01 0.0 0.0
1 -5.45402170732932916e+01 0.0 0.0
1 -2.10740819306583376e+01 0.0 0.0
8
Step 690
1 8.36537055723265865e+00 0.0 0.0
1 5.77939776881078018e+01 0.0 0.0
1 -7.42312396743615750e+01 0.0 0.0
1 3.60510026665934760e+01 0.0 0.0
1 -8.28609752458348403e+00 0.0 0.0
1 -4.72266775006012125e+01 0.0 0.0
1 -5.78404017218369049e+01 0.0 0.0
1 -1.15874456154828120e+01 0.0 0.0
8
Step 700
1 4.63313246248717281e+00 0.0 0.0
1 6.24065538120330245e+01 0.0 0.0
1 -7.51477396821355228e+01 0.0 0.0
1 4.45130112996267187e+01 0.0 0.0
1 -1.21801181789310142e+01 0.0 0.0
1 -5.83796638327634057e+01 0.0 0.0
1 -6.10355567151355416e+01 0.0 0.0
1 -1.55058182851705073e+00 0.0 0.0
8
Step 710
1 6.10524463116833949e-01 0.0 0.0
1 6.62741961656224419e+01 0.0 0.0
1 -7.56015036057436731e+01 0.0 0.0
1 5.21743278827216699e+01 0.0 0.0
1 -1.58420664726959615e+01 0.0 0.0
1 -6.88814361933802815e+01 0.0 0.0
1 -6.40803762290349113e+01 0.0 0.0
1 8.90893155548173077e+00 0.0 0.0
8
Step 720
1 -3.68516931830901617e+00 0.0 0.0
1 6.93816847409880211e+01 0.0 0.0
1 -7.56081639670399568e+01 0.0 0.0
1 5.89590126598118189e+01 0.0 0.0
1 -1.92210069333933937e+01 0.0 0.0
1 -7.86361229284974712e+01 0.0 0.0
1 -6.69302993327541316e+01 0.0 0.0
1 1.96568784568975019e+01 0.0 0.0
8
Step 730
1 -8.23112483610176859e+00 0.0 0.0
1 7.17216966330355774e+01 0.0 0.0
1 -7.51869162145453345e+01 0.0 0.0
1 6.48059770072156596e+01 0.0 0.0
1 -2.22728353969247017e+01 0.0 0.0
1 -8.75598387671014251e+01 0.0 0.0
1 -6.95421198767800206e+01 0.0 0.0
1 3.05542480449103238e+01 0.0 0.0
8
Step 740
1 -1.29993362364807528e+01 0.0 0.0
1 7.32946490832640336e+01 0.0 0.0
1 -7.43601240941623018e+01 0.0 0.0
1 6.96694773051078755e+01 0.0 0.0
1 -2.49607239988284952e+01 0.0 0.0
1 -9.55814414549864750e+01 0.0 0.0
1 -7.18745538392588941e+01 0.0 0.0
1 4.14590904897327590e+01 0.0 0.0
8
Step 750
1 -1.79570396340309664e+01 0.0 0.0
1 7.41084618061498617e+01 0.0 0.0
1 -7.31529035329889439e+01 0.0 0.0
1 7.35193509445365123e+01 0.0 0.0
1 -2.72554172199007212e+01 0.0 0.0
1 -1.02643063112443599e+02 0.0 0.0
1 -7.38887605011805277e+01 0.0 0.0
1 5.22283592335866800e+01 0.0 0.0
8
Step 760
1 -2.30671926037968973e+01 0.0 0.0
1 7.41782536342943644e+01 0.0 0.0
1 -7.15926949062819631e+01 0.0 0.0
1 7.63410120208389174e+01 0.0 0.0
1 -2.91353853597569952e+01 0.0 0.0
1 -1.08700429459216110e+02 0.0 0.0
1 -7.55488160517576546e+01 0.0 0.0
1 6.27197206082888030e+01 0.0 0.0
8
Step 770
1 -2.82890007497788432e+01 0.0 0.0
1 7.35259872535786911e+01 0.0 0.0
1 -6.97088319496457274e+01 0.0 0.0
1 7.81352262846073842e+01 0.0 0.0
1 -3.05868440003055788e+01 0.0 0.0
1 -1.13722982909588168e+02 0.0 0.0
1 -7.68221398453485307e+01 0.0 0.0
1 7.27933174520650681e+01 0.0 0.0
8
Step 780
1 -3.35784841095327806e+01 0.0 0.0
1 7.21800737331050328e+01 0.0 0.0
1 -6.75321138699412273e+01 0.0 0.0
1 7.89176850623153427e+01 0.0 0.0
1 -3.16036491904673511e+01 0.0 0.0
1 -1.17693826426581396e+02 0.0 0.0
1 -7.76798744975284876e+01 0.0 0.0
1 8.23134778867161856e+01 0.0 0.0
8
Step 790
1 -3.88890774207922689e+01 0.0 0.0
1 7.01749460396772804e+01 0.0 0.0
1 -6.50943855937849349e+01 0.0 0.0
1 7.87183966599649096e+01 0.0 0.0
1 -3.21870784538188488e+01 0.0 0.0
1 -1.20609504361709455e+02 0.0 0.0
1 -7.80972213568227858e+01 0.0 0.0
1 9.11503633197400802e+01 0.0 0.0
8
Step 800
1 -4.41722592389049282e+01 0.0 0.0
1 6.75506080895453067e+01 0.0 0.0
1 -6.24281297124462213e+01 0.0 0.0
1 7.75809118046784789e+01 0.0 0.0
1 -3.23455075556567948e+01 0.0 0.0
1 -1.22479634802783409e+02 0.0 0.0
1 -7.80537327145546698e+01 0.0 0.0
1 9.91815509774544779e+01 0.0 0.0
8
Step 810
1 -4.93782054460273514e+01 0.0 0.0
1 6.43521634022085465e+01 0.0 0.0
1 -5.95660726180927682e+01 0.0 0.0
1 7.55613975024742075e+01 0.0 0.0
1 -3.20939925279907428e+01 0.0 0.0
1 -1.23326405718496261e+02 0.0 0.0
1 -7.75335615474753297e+01 0.0 0.0
1 1.06293545989762706e+02 0.0 0.0
8
Step 820
1 -5.44564627895814652e+01 0.0 0.0
1 6.06293252841881483e+01 0.0 0.0
1 -5.65408066055119676e+01 0.0 0.0
1 7.27275717442262248e+01 0.0 0.0
1 -3.14537659686013598e+01 0.0 0.0
1 -1.23183944882348442e+02 0.0 0.0
1 -7.65256687692424862e+01 0.0 0.0
1 1.12383216509538698e+02 0.0 0.0
8
Step 830
1 -5.93566377388640305e+01 0.0 0.0
1 5.64359088164956830e+01 0.0 0.0
1 -5.33844293178597198e+01 0.0 0.0
1 6.91575101034888746e+01 0.0 0.0
1 -3.04516562772694037e+01 0.0 0.0
1 -1.22097571546995894e+02 0.0 0.0
1 -7.50239870375091300e+01 0.0 0.0
1 1.17359142918942908e+02 0.0 0.0
8
Step 840
1 -6.40290952100098139e+01 0.0 0.0
1 5.18293038168083982e+01 0.0 0.0
1 -5.01282017952886463e+01 0.0 0.0
1 6.49383346391444434e+01 0.0 0.0
1 -2.91194383794135945e+01 0.0 0.0
1 -1.20122936384713171e+02 0.0 0.0
1 -7.30275392497935201e+01 0.0 0.0
1 1.21142869246860499e+02 0.0 0.0
8
Step 850
1 -6.84256606689050670e+01 0.0 0.0
1 4.68699274134642536e+01 0.0 0.0
1 -4.68022264738384379e+01 0.0 0.0
1 6.01647957237097586e+01 0.0 0.0
1 -2.74931246642894820e+01 0.0 0.0
1 -1.17325055466639341e+02 0.0 0.0
1 -7.05405090704067703e+01 0.0 0.0
1 1.23670041889611355e+02 0.0 0.0
8
Step 860
1 -7.25003178893348661e+01 0.0 0.0
1 4.16206548814591244e+01 0.0 0.0
1 -4.34351467045237953e+01 0.0 0.0
1 5.49377584451157617e+01 0.0 0.0
1 -2.56122053282815152e+01 0.0 0.0
1 -1.13777244084760625e+02 0.0 0.0
1 -6.75722602481210970e+01 0.0 0.0
1 1.24891417955305528e+02 0.0 0.0
8
Step 870
1 -7.62098933420442819e+01 0.0 0.0
1 3.61462279002477800e+01 0.0 0.0
1 -4.00538696475308740e+01 0.0 0.0
1 4.93626069776689391e+01 0.0 0.0
1 -2.35188480192195186e+01 0.0 0.0
1 -1.09559957009649125e+02 0.0 0.0
1 -6.41373011745405108e+01 0.0 0.0
1 1.24773723357633742e+02 0.0 0.0
8
Step 880
1 -7.95147169456324718e+01 0.0 0.0
1 3.05126403284987049e+01 0.0 0.0
1 -3.66833146811204145e+01 0.0 0.0
1 4.35475826314097318e+01 0.0 0.0
1 -2.12570675522466352e+01 0.0 0.0
1 -1.04759543245883549e+02 0.0 0.0
1 -6.02551911410391554e+01 0.0 0.0
1 1.23300339426439763e+02 0.0 0.0
8
Step 890
1 -8.23792478447372787e+01 0.0 0.0
1 2.47865028665290517e+01 0.0 0.0
1 -3.33461896989779518e+01 0.0 0.0
1 3.76020739749936226e+01 0.0 0.0
1 -1.88718774222935188e+01 0.0 0.0
1 -9.94669253723762097e+01 0.0 0.0
1 -5.59503851037421782e+01 0.0 0.0
1 1.20471796475166315e+02 0.0 0.0
8
Step 900
1 -8.47726531070722018e+01 0.0 0.0
1 1.90343894966913076e+01 0.0 0.0
1 -3.00627978168065972e+01 0.0 0.0
1 3.16348802705633219e+01 0.0 0.0
1 -1.64084357770599247e+01 0.0 0.0
1 -9.37762159813061231e+01 0.0 0.0
1 -5.12520144693456601e+01 0.0 0.0
1 1.16306053597477458e+02 0.0 0.0
8
Step 910
1 -8.66693268448728134e+01 0.0 0.0
1 1.33221702514715794e+01 0.0 0.0
1 -2.68508770456286108e+01 0.0 0.0
1 2.57524722363517782e+01 0.0 0.0
1 -1.39111993434493009e+01 0.0 0.0
1 -8.77832863814662545e+01 0.0 0.0
1 -4.61936024595583845e+01 0.0 0.0
1 1.10838546017492888e+02 0.0 0.0
8
Step 920
1 -8.80493373435600404e+01 0.0 0.0
1 7.71433654955401149e+00 0.0 0.0
1 -2.37254754038892912e+01 0.0 0.0
1 2.00572766429162179e+01 0.0 0.0
1 -1.14230994327066018e+01 0.0 0.0
1 -8.15843054233157972e+01 0.0 0.0
1 -4.08127139702143893e+01 0.0 0.0
1 1.04121984583068880e+02 0.0 0.0
8
Step 930
1 -8.88987903712399401e+01 0.0 0.0
1 2.27332695102895910e+00 0.0 0.0
1 -2.06988637308371786e+01 0.0 0.0
1 1.46460132429097900e+01 0.0 0.0
1 -8.98475450920397023e+00 0.0 0.0
1 -7.52742688452969588e+01 0.0 0.0
1 -3.51505414657912851e+01 0.0 0.0
1 9.62258963963490856e+01 0.0 0.0
8
Step 940
1 -8.92100979691939102e+01 0.0 0.0
1 -2.94113739398669072e+00 0.0 0.0
1 -1.77804881347532877e+01 0.0 0.0
1 9.60811384384195577e+00 0.0 0.0
1 -6.63373383271429073e+00 0.0 0.0
1 -6.89455417508797410e+01 0.0 0.0
1 -2.92514302762951672e+01 0.0 0.0
1 8.72359009841909483e+01 0.0 0.0
8
Step 950
1 -8.89821436779538146e+01 0.0 0.0
1 -7.87269719510635024e+00 0.0 0.0
1 -1.49769635714900922e+01 0.0 0.0
1 5.02425379913356362e+00 0.0 0.0
1 -4.40388632742592367e+00 0.0 0.0
1 -6.26864385332141367e+01 0.0 0.0
1 -2.31623486097701168e+01 0.0 0.0
1 7.72527226283159933e+01 0.0 0.0
8
Step 960
1 -8.82203372975784248e+01 0.0 0.0
1 -1.24689682060674620e+01 0.0 0.0
1 -1.22921095150051816e+01 0.0 0.0
1 9.65025692872053087e-01 0.0 0.0
1 -2.32474806315277993e+00 0.0 0.0
1 -5.65798656196917165e+01 0.0 0.0
1 -1.69323095646445552e+01 0.0 0.0
1 6.63909462545033051e+01 0.0 0.0
8
Step 970
1 -8.69365548464372608e+01 0.0 0.0
1 -1.66821116748579534e+01 0.0 0.0
1 -9.72702806799512665e+00 0.0 0.0
1 -2.51021654927287674e+00 0.0 0.0
1 -4.21040543682000112e-01 0.0 0.0
1 -5.07020526908463793e+01 0.0 0.0
1 -1.06117543163146877e+01 0.0 0.0
1 5.47775313323488504e+01 0.0 0.0
8
Step 980
1 -8.51489622750256387e+01 0.0 0.0
1 -2.04693507854692598e+01 0.0 0.0
1 -7.28022418478065969e+00 0.0 0.0
1 -5.35431750228871994e+00 0.0 0.0
1 1.28772960816379189e+00 0.0 0.0
1 -4.51213974510961719e+01 0.0 0.0
1 -4.25190735154317956e+00 0.0 0.0
1 4.25501052414310337e+01 0.0 0.0
8
Step 990
1 -8.28817245916261243e+01 0.0 0.0
1 -2.37934225347318424e+01 0.0 0.0
1 -4.94776695879842165e+00 0.0 0.0
1 -7.53306206623647423e+00 0.0 0.0
1 2.78756097134574921e+00 0.0 0.0
1 -3.98974475492539469e+01 0.0 0.0
1 2.09588397638545709e+00 0.0 0.0
1 2.98550641789840299e+01 0.0 0.0
8
Step 1000
1 -8.01646052286746169e+01 0.0 0.0
1 -2.66229557206003662e+01 0.0 0.0
1 -2.72349018273709786e+00 0.0 0.0
1 -9.02568189902973650e+00 0.0 0.0
1 4.07013138641909045e+00 0.0 0.0
1 -3.50800408684691547e+01 0.0 0.0
1 8.38081229954675955e+00 0.0 0.0
1 1.68455155820480940e+01 0.0 0.0
8
Step 1010
1 -7.70324635753018327e+01 0.0 0.0
1 -2.89327674268959179e+01 0.0 0.0
1 -5.99229640324587698e-01 0.0 0.0
1 -9.82511447857131692e+00 0.0 0.0
1 5.13285208809763116e+00 0.0 0.0
1 -3.07086221831876536e+01 0.0 0.0
1 1.45532617071716182e+01 0.0 0.0
1 3.67910089775263627e+00 0.0 0.0
8
Step 1020
1 -7.35246614730756107e+01 0.0 0.0
1 -3.07040725019336556e+01 0.0 0.0
1 1.43490614500922575e+00 0.0 0.0
1 -9.93800880262307196e+00 0.0 0.0
1 5.97880102911944888e+00 0.0 0.0
1 -2.68117502213222920e+01 0.0 0.0
1 2.05654340803994238e+01 0.0 0.0
1 -9.48425891513175756e+00 0.0 0.0
8
Step 1030
1 -6.96843919759335080e+01 0.0 0.0
1 -3.19246029425248032e+01 0.0 0.0
1 3.39023567816821059e+00 0.0 0.0
1 -9.38447806288197128e+00 0.0 0.0
1 6.61653738241736811e+00 0.0 0.0
1 -2.34068046284876914e+01 0.0 0.0
1 2.63719371387244159e+01 0.0 0.0
1 -2.24846507429617724e+01 0.0 0.0
8
Step 1040
1 -6.55579456863190018e+01 0.0 0.0
1 -3.25886366828917460e+01 0.0 0.0
1 5.27917939541416104e+00 0.0 0.0