8
Step 0
1 -6.56289497729523390e+01 0.0 0.0
1 5.64193820346903010e+01 0.0 0.0
1 8.60337798242653662e+01 0.0 0.0
1 -7.31874695814452423e+01 0.0 0.0
1 9.79549514979741502e+01 0.0 0.0
1 5.36918972500275515e+01 0.0 0.0
1 1.24671094116073675e+02 0.0 0.0
1 6.56403031169460291e+01 0.0 0.0
8
Step 10
1 -6.91333884230479327e+01 0.0 0.0
1 4.81029149169208523e+01 0.0 0.0
1 8.81392605265921958e+01 0.0 0.0
1 -7.41812813168211846e+01 0.0 0.0
1 9.49866011197973563e+01 0.0 0.0
1 5.83020698809458295e+01 0.0 0.0
1 1.13702406865767486e+02 0.0 0.0
1 5.50835445018329963e+01 0.0 0.0
8
Step 20
1 -7.18920121315826890e+01 0.0 0.0
1 3.97770529114334508e+01 0.0 0.0
1 8.90185046829277553e+01 0.0 0.0
1 -7.42319818868161150e+01 0.0 0.0
1 9.05366220141654878e+01 0.0 0.0
1 6.24688043873518666e+01 0.0 0.0
1 1.02072981920272440e+02 0.0 0.0
1 4.35739357342493463e+01 0.0 0.0
8
Step 30
1 -7.38560373689183081e+01 0.0 0.0
1 3.14984818120773902e+01 0.0 0.0
1 8.87010712651887587e+01 0.0 0.0
1 -7.33774870752415325e+01 0.0 0.0
1 8.46697642875115264e+01 0.0 0.0
1 6.61253854139365558e+01 0.0 0.0
1 8.99357494873438412e+01 0.0 0.0
1 3.12527219560071181e+01 0.0 0.0
8
Step 40
1 -7.49877246023766162e+01 0.0 0.0
1 2.33239410969285963e+01 0.0 0.0
1 8.72348981832779771e+01 0.0 0.0
1 -7.16701105704160994e+01 0.0 0.0
1 7.74754456983615967e+01 0.0 0.0
1 6.92142440523769125e+01 0.0 0.0
1 7.74507249928370527e+01 0.0 0.0
1 1.82729202523769771e+01 0.0 0.0
8
Step 50
1 -7.52610053857526395e+01 0.0 0.0
1 1.53096825060070678e+01 0.0 0.0
1 8.46856715235775113e+01 0.0 0.0
1 -6.91758427500632536e+01 0.0 0.0
1 6.90666460081225324e+01 0.0 0.0
1 7.16879374208962901e+01 0.0 0.0
1 6.47827592817350961e+01 0.0 0.0
1 4.79726895357817895e+00 0.0 0.0
8
Step 60
1 -7.46619633824456344e+01 0.0 0.0
1 7.51085179884637810e+00 0.0 0.0
1 8.11358747210594231e+01 0.0 0.0
1 -6.59733469799239742e+01 0.0 0.0
1 5.95782859640359064e+01 0.0 0.0
1 7.35099716338134357e+01 0.0 0.0
1 5.20990484445053568e+01 0.0 0.0
1 -9.00410538673143535e+00 0.0 0.0
8
Step 70
1 -7.31891343065808684e+01 0.0 0.0
1 -1.91883373209977837e-02 0.0 0.0
1 7.66834778808141238e+01 0.0 0.0
1 -6.21526479335976063e+01 0.0 0.0
1 4.91650652936653074e+01 0.0 0.0
1 7.46554287031100614e+01 0.0 0.0
1 3.95664411066911228e+01 0.0 0.0
1 -2.29562845878656745e+01 0.0 0.0
8
Step 80
1 -7.08535914198205603e+01 0.0 0.0
1 -7.22956741251804669e+00 0.0 0.0
1 7.14402475906141348e+01 0.0 0.0
1 -5.78135046547322915e+01 0.0 0.0
1 3.79987635307328944e+01 0.0 0.0
1 7.51113579554998978e+01 0.0 0.0
1 2.73486077590801351e+01 0.0 0.0
1 -3.68823725382681857e+01 0.0 0.0
8
Step 90
1 -6.76787891230648313e+01 0.0 0.0
1 -1.40726153552907096e+01 0.0 0.0
1 6.55296861928460714e+01 0.0 0.0
1 -5.30634858809128076e+01 0.0 0.0
1 2.62650437080764654e+01 0.0 0.0
1 7.48768980986309032e+01 0.0 0.0
1 1.56031600853328989e+01 0.0 0.0
1 -5.06064522206491390e+01 0.0 0.0
8
Step 100
1 -6.37001467925825935e+01 0.0 0.0
1 -2.05045344784841035e+01 0.0 0.0
1 5.90846411341490594e+01 0.0 0.0
1 -4.80157920181502931e+01 0.0 0.0
1 1.41598374436696943e+01 0.0 0.0
1 7.39631070839922558e+01 0.0 0.0
1 4.47882469605727085e+00 0.0 0.0
1 -6.39565895069946251e+01 0.0 0.0
8
Step 110
1 -5.89643679567860417e+01 0.0 0.0
1 -2.64860014423669412e+01 0.0 0.0
1 5.22446539874162212e+01 0.0 0.0
1 -4.27868921413699184e+01 0.0 0.0
1 1.88542529239341694e+00 0.0 0.0
1 7.23924924148099080e+01 0.0 0.0
1 -5.88721750518589904e+00 0.0 0.0
1 -7.67677724937040864e+01 0.0 0.0
8
Step 120
1 -5.35285059036651631e+01 0.0 0.0
1 -3.19826706775226874e+01 0.0 0.0
1 4.51531409264465395e+01 0.0 0.0
1 -3.74940617096078697e+01 0.0 0.0
1 -1.03536469532392790e+01 0.0 0.0
1 7.01982527253979214e+01 0.0 0.0
1 -1.53717193744480429e+01 0.0 0.0
1 -8.88846710454435538e+01 0.0 0.0
8
Step 130
1 -4.74588047612830763e+01 0.0 0.0
1 -3.69655586606784397e+01 0.0 0.0
1 3.79545095058030384e+01 0.0 0.0
1 -3.22529151810165970e+01 0.0 0.0
1 -2.23546614410178535e+01 0.0 0.0
1 6.74232599487220199e+01 0.0 0.0
1 -2.38673913645492810e+01 0.0 0.0
1 -1.00164108650240678e+02 0.0 0.0
8
Step 140
1 -4.08293623896230500e+01 0.0 0.0
1 -4.14112980957621062e+01 0.0 0.0
1 3.07913194804530335e+01 0.0 0.0
1 -2.71750267109268293e+01 0.0 0.0
1 -3.39206778584035220e+01 0.0 0.0
1 6.41188276688971399e+01 0.0 0.0
1 -3.12844942153273209e+01 0.0 0.0
1 -1.10477157144918138e+02 0.0 0.0
8
Step 150
1 -3.37206744496372295e+01 0.0 0.0
1 -4.53022614811855959e+01 0.0 0.0
1 2.38015880302151785e+01 0.0 0.0
1 -2.23657222214838960e+01 0.0 0.0
1 -4.48642032727856517e+01 0.0 0.0
1 6.03433230903571172e+01 0.0 0.0
1 -3.75519645435377356e+01 0.0 0.0
1 -1.19710792382088556e+02 0.0 0.0
8
Step 160
1 -2.62181247481220687e+01 0.0 0.0
1 -4.86265637326888509e+01 0.0 0.0
1 1.71163232902811409e+01 0.0 0.0
1 -1.79221091426549677e+01 0.0 0.0
1 -5.50104756024876522e+01 0.0 0.0
1 5.61606859104929654e+01 0.0 0.0
1 -4.26180704997226556e+01 0.0 0.0
1 -1.27769082067697923e+02 0.0 0.0
8
Step 170
1 -1.84104842994601938e+01 0.0 0.0
1 -5.13779623657854003e+01 0.0 0.0
1 1.08573470338250555e+01 0.0 0.0
1 -1.39313888044107621e+01 0.0 0.0
1 -6.42002916106799546e+01 0.0 0.0
1 5.16389167207838966e+01 0.0 0.0
1 -4.64506254851917362e+01 0.0 0.0
1 -1.34573911293392143e+02 0.0 0.0
8
Step 180
1 -1.03884715521648765e+01 0.0 0.0
1 -5.35556801501436723e+01 0.0 0.0
1 5.13544124461404117e+00 0.0 0.0
1 -1.04694740666997728e+01 0.0 0.0
1 -7.22923499019479436e+01 0.0 0.0
1 4.68485909446772553e+01 0.0 0.0
1 -4.90368125374141641e+01 0.0 0.0
1 -1.40065281986646056e+02 0.0 0.0
8
Step 190
1 -2.24341138717419541e+00 0.0 0.0
1 -5.51641783525106817e+01 0.0 0.0
1 4.88280415132687495e-02 0.0 0.0
1 -7.59991442571161002e+00 0.0 0.0
1 -7.91651153366859717e+01 0.0 0.0
1 4.18614432491938402e+01 0.0 0.0
1 -5.03826876900035501e+01 0.0 0.0
1 -1.44201245736429371e+02 0.0 0.0
8
Step 200
1 5.93398622105261886e+00 0.0 0.0
1 -5.62129083949237085e+01 0.0 0.0
1 -4.31802859954263063e+00 0.0 0.0
1 -5.37311486955144257e+00 0.0 0.0
1 -8.47182390104418062e+01 0.0 0.0
1 3.67490538829281803e+01 0.0 0.0
1 -5.05124362601762584e+01 0.0 0.0
1 -1.46957542993054261e+02 0.0 0.0
8
Step 210
1 1.40547228249263938e+01 0.0 0.0
1 -5.67160662082905773e+01 0.0 0.0
1 -7.89532535102232913e+00 0.0 0.0
1 -3.82582428595622659e+00 0.0 0.0
1 -8.88735848198060125e+01 0.0 0.0
1 3.15816545884767095e+01 0.0 0.0
1 -4.94674520514975526e+01 0.0 0.0
1 -1.48327025035613332e+02 0.0 0.0
8
Step 220
1 2.20324912144278500e+01 0.0 0.0
1 -5.66923674322470177e+01 0.0 0.0
1 -1.06285594827843486e+01 0.0 0.0
1 -2.98086409945496644e+00 0.0 0.0
1 -9.15759190870028732e+01 0.0 0.0
1 2.64270593704891326e+01 0.0 0.0
1 -4.73052976179572084e+01 0.0 0.0
1 -1.48318929312280744e+02 0.0 0.0
8
Step 230
1 2.97845548133855793e+01 0.0 0.0
1 -5.61648538517420519e+01 0.0 0.0
1 -1.24789401693274353e+01 0.0 0.0
1 -2.84706710996864976e+00 0.0 0.0
1 -9.27933149351556068e+01 0.0 0.0
1 2.13497157247664049e+01 0.0 0.0
1 -4.40985866216132578e+01 0.0 0.0
1 -1.46958065664325829e+02 0.0 0.0
8
Step 240
1 3.72325479636689920e+01 0.0 0.0
1 -5.51607330941233656e+01 0.0 0.0
1 -1.34236009583532390e+01 0.0 0.0
1 -3.41939930416717885e+00 0.0 0.0
1 -9.25173104123111898e+01 0.0 0.0
1 1.64098657050083148e+01 0.0 0.0
1 -3.99338099315804698e+01 0.0 0.0
1 -1.44283952963016162e+02 0.0 0.0
8
Step 250
1 4.43032191046465513e+01 0.0 0.0
1 -5.37112455118263981e+01 0.0 0.0
1 -1.34556358953157496e+01 0.0 0.0
1 -4.67924325701042054e+00 0.0 0.0
1 -9.07628415994927735e+01 0.0 0.0
1 1.16628037331038446e+01 0.0 0.0
1 -3.49101083864834365e+01 0.0 0.0
1 -1.40349925557064836e+02 0.0 0.0
8
Step 260
1 5.09291360070776875e+01 0.0 0.0
1 -5.18515449286668684e+01 0.0 0.0
1 -1.25839723509972874e+01 0.0 0.0
1 -6.59483023948103675e+00 0.0 0.0
1 -8.75679521597281791e+01 0.0 0.0
1 7.15821920666891742e+00 0.0 0.0
1 -2.91379795181309014e+01 0.0 0.0
1 -1.35222209480277087e+02 0.0 0.0
8
Step 270
1 5.70493655993432327e+01 0.0 0.0
1 -4.96205738982108358e+01 0.0 0.0
1 -1.08330829801843738e+01 0.0 0.0
1 -9.12181817631137193e+00 0.0 0.0
1 -8.29932621337580514e+01 0.0 0.0
1 2.93961610014585029e+00 0.0 0.0
1 -2.27378947072323498e+01 0.0 0.0
1 -1.28978952212778864e+02 0.0 0.0
8
Step 280
1 6.26101308568250872e+01 0.0 0.0
1 -4.70609096952168713e+01 0.0 0.0
1 -8.24252901379598590e+00 0.0 0.0
1 -1.22040221266810249e+01 0.0 0.0
1 -7.71211643177226875e+01 0.0 0.0
1 -9.56192154355183455e-01 0.0 0.0
1 -1.58387981565308831e+01 0.0 0.0
1 -1.21709178956246461e+02 0.0 0.0
8
Step 290
1 6.75654350704570277e+01 0.0 0.0
1 -4.42185550225632724e+01 0.0 0.0
1 -4.86631930588951178e+00 0.0 0.0
1 -1.57743107239179174e+01 0.0 0.0
1 -7.00547088895376220e+01 0.0 0.0
1 -4.49950746413405245e+00 0.0 0.0
1 -8.57646011961783827e+00 0.0 0.0
1 -1.13511644103682315e+02 0.0 0.0
8
Step 300
1 7.18776318075211407e+01 0.0 0.0
1 -4.11426481372149624e+01 0.0 0.0
1 -7.72065971480627500e-01 0.0 0.0
1 -1.97556842506131964e+01 0.0 0.0
1 -6.19161378794082751e+01 0.0 0.0
1 -7.66808037013856847e+00 0.0 0.0
1 -1.09166407911099261e+00 0.0 0.0
1 -1.04493549240440359e+02 0.0 0.0
8
Step 310
1 7.55179095118259625e+01 0.0 0.0
1 -3.78850715004009189e+01 0.0 0.0
1 3.96008109127971553e+00 0.0 0.0
1 -2.40625467889178495e+01 0.0 0.0
1 -5.28450412726543064e+01 0.0 0.0
1 -1.04473362345706686e+01 0.0 0.0
1 6.47177923703959035e+00 0.0 0.0
1 -9.47691081900476746e+01 0.0 0.0
8
Step 320
1 7.84666550108064627e+01 0.0 0.0
1 -3.44999464090302510e+01 0.0 0.0
1 9.23873206520101142e+00 0.0 0.0
1 -2.86021760455031924e+01 0.0 0.0
1 -4.29961253532870913e+01 0.0 0.0
1 -1.28304767834191118e+01 0.0 0.0
1 1.39691798448956401e+01 0.0 0.0
1 -8.44579541553867870e+01 0.0 0.0
8
Step 330
1 8.07136613026509053e+01 0.0 0.0
1 -3.10430127582142106e+01 0.0 0.0
1 1.49627879871644076e+01 0.0 0.0
1 -3.32763808017474219e+01 0.0 0.0
1 -3.25366093661939360e+01 0.0 0.0
1 -1.48184403873765387e+01 0.0 0.0
1 2.12572458580417809e+01 0.0 0.0
1 -7.36834020590372631e+01 0.0 0.0
8
Step 340
1 8.22581518164298586e+01 0.0 0.0
1 -2.75709064445462992e+01 0.0 0.0
1 2.10231909356825817e+01 0.0 0.0
1 -3.79833193133470886e+01 0.0 0.0
1 -2.16432955103743723e+01 0.0 0.0
1 -1.64197082101590475e+01 0.0 0.0
1 2.81964358153956027e+01 0.0 0.0
1 -6.25705983620179325e+01 0.0 0.0
8
Step 350
1 8.31086047982120277e+01 0.0 0.0
1 -2.41403594984489516e+01 0.0 0.0
1 2.73048642553821459e+01 0.0 0.0
1 -4.26194350980467007e+01 0.0 0.0
1 -1.04993856558768499e+01 0.0 0.0
1 -1.76499495587462825e+01 0.0 0.0
1 3.46533132100412402e+01 0.0 0.0
1 -5.12446082478784533e+01 0.0 0.0
8
Step 360
1 8.32823759383014988e+01 0.0 0.0
1 -2.08073573473850750e+01 0.0 0.0
1 3.36887974992085475e+01 0.0 0.0
1 -4.70814524823940559e+01 0.0 0.0
1 7.08858235679566739e-01 0.0 0.0
1 -1.85315078044319819e+01 0.0 0.0
1 4.05028188932065447e+01 0.0 0.0
1 -3.98285034819471022e+01 0.0 0.0
8
Step 370
1 8.28051330150062768e+01 0.0 0.0
1 -1.76262920220270836e+01 0.0 0.0
1 4.00542169267787500e+01 0.0 0.0
1 -5.12683657316503556e+01 0.0 0.0
1 1.17954979041226515e+01 0.0 0.0
1 -1.90927372266316553e+01 0.0 0.0
1 4.56303747755726050e+01 0.0 0.0
1 -2.84415213688377513e+01 0.0 0.0
8
Step 380
1 8.17101312930796553e+01 0.0 0.0
1 -1.46491494157413040e+01 0.0 0.0
1 4.62807729998847535e+01 0.0 0.0
1 -5.50833542372200711e+01 0.0 0.0
1 2.25782305506816492e+01 0.0 0.0
1 -1.93672099635955313e+01 0.0 0.0
1 4.99337402235483907e+01 0.0 0.0
1 -1.71973647775916376e+01 0.0 0.0
8
Step 390
1 8.00373704394252030e+01 0.0 0.0
1 -1.19247639422717775e+01 0.0 0.0
1 5.22506735565612459e+01 0.0 0.0
1 -5.84355623745597512e+01 0.0 0.0
1 3.28815199414513870e+01 0.0 0.0
1 -1.93928197384167724e+01 0.0 0.0
1 5.33245598960652174e+01 0.0 0.0
1 -6.20270504041339699e+00 0.0 0.0
8
Step 400
1 7.78326800893203483e+01 0.0 0.0
1 -9.49816640130528000e+00 0.0 0.0
1 5.78506965795032002e+01 0.0 0.0
1 -6.12416951977518806e+01 0.0 0.0
1 4.25394568252291307e+01 0.0 0.0
1 -1.92108140885776244e+01 0.0 0.0
1 5.57295659182286229e+01 0.0 0.0
1 4.44406528501547449e+00 0.0 0.0
8
Step 410
1 7.51467795648383685e+01 0.0 0.0
1 -7.41004110960145113e+00 0.0 0.0
1 6.29740293384952139e+01 0.0 0.0
1 -6.34273979476035237e+01 0.0 0.0
1 5.13982856799299412e+01 0.0 0.0
1 -1.88647887580361591e+01 0.0 0.0
1 5.70914243930377765e+01 0.0 0.0
1 1.46538021018552573e+01 0.0 0.0
8
Step 420
1 7.20343476988560951e+01 0.0 0.0
1 -5.69629657534722966e+00 0.0 0.0
1 6.75218986990817882e+01 0.0 0.0
1 -6.49284055470688486e+01 0.0 0.0
1 5.93185659831812586e+01 0.0 0.0
1 -1.83996765892121275e+01 0.0 0.0
1 5.73692419289211699e+01 0.0 0.0
1 2.43472950700163295e+01 0.0 0.0
8
Step 430
1 6.85531251736371416e+01 0.0 0.0
1 -4.38774157831610445e+00 0.0 0.0
1 7.14049766702705000e+01 0.0 0.0
1 -6.56914647767154776e+01 0.0 0.0
1 6.61769660165861495e+01 0.0 0.0
1 -1.78607592074339543e+01 0.0 0.0
1 5.65387680936275032e+01 0.0 0.0
1 3.34556810192034746e+01 0.0 0.0
8
Step 440
1 6.47630599773614222e+01 0.0 0.0
1 -3.50984850066922505e+00 0.0 0.0
1 7.45445620722143190e+01 0.0 0.0
1 -6.56750441953292210e+01 0.0 0.0
1 7.18677107474619561e+01 0.0 0.0
1 -1.72927240310799455e+01 0.0 0.0
1 5.45923417841860967e+01 0.0 0.0
1 4.19206134772956105e+01 0.0 0.0
8
Step 450
1 6.07254997617151844e+01 0.0 0.0
1 -3.08258086728905711e+00 0.0 0.0
1 7.68735511834231033e+01 0.0 0.0
1 -6.48498538941371123e+01 0.0 0.0
1 7.63037200440825671e+01 0.0 0.0
1 -1.67387827892600143e+01 0.0 0.0
1 5.15386326658280041e+01 0.0 0.0
1 4.96942267202568786e+01 0.0 0.0
8
Step 460
1 5.65024321295140766e+01 0.0 0.0
1 -3.12026272170407459e+00 0.0 0.0
1 7.83372165863191015e+01 0.0 0.0
1 -6.31991989056721195e+01 0.0 0.0
1 7.94174792654561656e+01 0.0 0.0
1 -1.62398617157899956e+01 0.0 0.0
1 4.74022241368257156e+01 0.0 0.0
1 5.67389378036419103e+01 0.0 0.0
8
Step 470
1 5.21557724918772649e+01 0.0 0.0
1 -3.63147207587973364e+00 0.0 0.0
1 7.88938144583435701e+01 0.0 0.0
1 -6.07191873262803767e+01 0.0 0.0
1 8.11616822102522377e+01 0.0 0.0
1 -1.58338685669404722e+01 0.0 0.0
1 4.22230738187830497e+01 0.0 0.0
1 6.30271300321180803e+01 0.0 0.0
8
Step 480
1 4.77466973934987706e+01 0.0 0.0
1 -4.61894723822786180e+00 0.0 0.0
1 7.85150372015661731e+01 0.0 0.0
1 -5.74188080543455754e+01 0.0 0.0
1 8.15096778935217543e+01 0.0 0.0
1 -1.55550380032134843e+01 0.0 0.0
1 3.60558737351035887e+01 0.0 0.0
1 6.85407569315941032e+01 0.0 0.0
8
Step 490
1 4.33350189301107065e+01 0.0 0.0
1 -6.07950197443737395e+00 0.0 0.0
1 7.71863219606082822e+01 0.0 0.0
1 -5.33198847389126982e+01 0.0 0.0
1 8.04557392684822901e+01 0.0 0.0
1 -1.54333549102133532e+01 0.0 0.0
1 2.89693174265948912e+01 0.0 0.0
1 7.32708980145371385e+01 0.0 0.0
8
Step 500
1 3.89785936442835919e+01 0.0 0.0
1 -8.00395243328171979e+00 0.0 0.0
1 7.49070178128206834e+01 0.0 0.0
1 -4.84569033882490956e+01 0.0 0.0
1 7.80151558503749101e+01 0.0 0.0
1 -1.54940549431064021e+01 0.0 0.0
1 2.10452673759524309e+01 0.0 0.0
1 7.72172877539736362e+01 0.0 0.0
8
Step 510
1 3.47327577972737203e+01 0.0 0.0
1 -1.03770650816666148e+01 0.0 0.0
1 7.16904065868582023e+01 0.0 0.0
1 -4.28767023939228480e+01 0.0 0.0
1 7.42241355930143669e+01 0.0 0.0
1 -1.57572027837435673e+01 0.0 0.0
1 1.23778051274123744e+01 0.0 0.0
1 8.03878286246655733e+01 0.0 0.0
8
Step 520
1 3.06497808760888404e+01 0.0 0.0
1 -1.31775400777758502e+01 0.0 0.0
1 6.75635653220699197e+01 0.0 0.0
1 -3.66380067097516573e+01 0.0 0.0
1 6.91394867688043036e+01 0.0 0.0
1 -1.62373508957393078e+01 0.0 0.0
1 3.07213988943406768e+00 0.0 0.0
1 8.27980892168568943e+01 0.0 0.0
8
Step 530
1 2.67783311684166812e+01 0.0 0.0
1 -1.63780480758861486e+01 0.0 0.0
1 6.25670530344786471e+01 0.0 0.0
1 -2.98107837837170919e+01 0.0 0.0
1 6.28380403000111230e+01 0.0 0.0
1 -1.69432843413164491e+01 0.0 0.0
1 -6.75664978779576408e+00 0.0 0.0
1 8.44707804657669925e+01 0.0 0.0
8
Step 540
1 2.31629513493329320e+01 0.0 0.0
1 -1.99453399234073352e+01 0.0 0.0
1 5.67544015634468266e+01 0.0 0.0
1 -2.24753987156423385e+01 0.0 0.0
1 5.54157689213558555e+01 0.0 0.0
1 -1.78778597434335182e+01 0.0 0.0
1 -1.69850620394688221e+01 0.0 0.0
1 8.54351978272020887e+01 0.0 0.0
8
Step 550
1 1.98435477299758070e+01 0.0 0.0
1 -2.38404477136024155e+01 0.0 0.0
1 5.01913909381849521e+01 0.0 0.0
1 -1.47215508666746899e+01 0.0 0.0
1 4.69865631199147984e+01 0.0 0.0
1 -1.90379479912837795e+01 0.0 0.0
1 -2.74828159975939741e+01 0.0 0.0
1 8.57266152273022186e+01 0.0 0.0
8
Step 560
1 1.68549030064592955e+01 0.0 0.0
1 -2.80189920527578984e+01 0.0 0.0
1 4.29550948911820001e+01 0.0 0.0
1 -6.64698399679108576e+00 0.0 0.0
1 3.76806355819247614e+01 0.0 0.0
1 -2.04144901892284487e+01 0.0 0.0
1 -3.81146901555975219e+01 0.0 0.0
1 8.53856178839348701e+01 0.0 0.0
8
Step 570
1 1.42262277006410098e+01 0.0 0.0
1 -3.24316043599473289e+01 0.0 0.0
1 3.51326921259091449e+01 0.0 0.0
1 1.64402376279569218e+00 0.0 0.0
1 2.76425453178619733e+01 0.0 0.0
1 -2.19926742936713566e+01 0.0 0.0
1 -4.87425327514862659e+01 0.0 0.0
1 8.44573653441278083e+01 0.0 0.0
8
Step 580
1 1.19807688627038331e+01 0.0 0.0
1 -3.70244650742303634e+01 0.0 0.0
1 2.68200529676484258e+01 0.0 0.0
1 1.00423668578460763e+01 0.0 0.0
1 1.70288578381125006e+01 0.0 0.0
1 -2.37522358669597793e+01 0.0 0.0
1 -5.92274034862591279e+01 0.0 0.0
1 8.29907827091263073e+01 0.0 0.0
8
Step 590
1 1.01354952812059409e+01 0.0 0.0
1 -4.17399496762707187e+01 0.0 0.0
1 1.81201273796781841e+01 0.0 0.0
1 1.84359756461261952e+01 0.0 0.0
1 6.00548560412449817e+00 0.0 0.0
1 -2.56678807649546599e+01 0.0 0.0
1 -6.94317888662026519e+01 0.0 0.0
1 8.10376861681105538e+01 0.0 0.0
8
Step 600
1 8.70087620405802653e+00 0.0 0.0
1 -4.65173655737231755e+01 0.0 0.0
1 9.14117668098122138e+00 0.0 0.0
1 2.67117805264926140e+01 0.0 0.0
1 -5.25522035068900806e+00 0.0 0.0
1 -2.77098210497689124e+01 0.0 0.0
1 -7.92218205436727061e+01 0.0 0.0
1 7.86518575629447412e+01 0.0 0.0
8
Step 610
1 7.68076573023972742e+00 0.0 0.0
1 -5.12937553892945104e+01 0.0 0.0
1 -5.09485627311234701e-03 0.0 0.0
1 3.47577107700131336e+01 0.0 0.0
1 -1.65775351316634669e+01 0.0 0.0
1 -2.98444088790593369e+01 0.0 0.0
1 -8.84694193803930773e+01 0.0 0.0
1 7.58880905739946314e+01 0.0 0.0
8
Step 620
1 7.07239839752254351e+00 0.0 0.0
1 -5.60047371677510242e+01 0.0 0.0
1 -9.20544327943648355e+00 0.0 0.0
1 4.24646576964139939e+01 0.0 0.0
1 -2.77854752255947233e+01 0.0 0.0
1 -3.20348475240191206e+01 0.0 0.0
1 -9.70542889666750455e+01 0.0 0.0
1 7.28012371133933556e+01 0.0 0.0
8
Step 630
1 6.86649426525478912e+00 0.0 0.0
1 -6.05853503219340865e+01 0.0 0.0
1 -1.83469551793494041e+01 0.0 0.0
1 4.97283345483110608e+01 0.0 0.0
1 -3.87058555027803237e+01 0.0 0.0
1 -3.42419548500286481e+01 0.0 0.0
1 -1.04865691295908377e+02 0.0 0.0
1 6.94452857447020335e+01 0.0 0.0
8
Step 640
1 7.04746536325368211e+00 0.0 0.0
1 -6.49708781322423619e+01 0.0 0.0
1 -2.73188214122270523e+01 0.0 0.0
1 5.64509747710202348e+01 0.0 0.0
1 -4.91711870047510331e+01 0.0 0.0
1 -3.64249531232152179e+01 0.0 0.0
1 -1.11803953250445446e+02 0.0 0.0
1 6.58725039399072898e+01 0.0 0.0
8
Step 650
1 7.59371101531730019e+00 0.0 0.0
1 -6.90976230809994831e+01 0.0 0.0
1 -3.60139621312786105e+01 0.0 0.0
1 6.25428250608447343e+01 0.0 0.0
1 -5.90223318863889190e+01 0.0 0.0
1 -3.85422600663696713e+01 0.0 0.0
1 -1.17781673379430700e+02 0.0 0.0
1 6.21326727652245836e+01 0.0 0.0
8
Step 660
1 8.47798797933538140e+00 0.0 0.0
1 -7.29036194196924470e+01 0.0 0.0
1 -4.43304675425797825e+01 0.0 0.0
1 6.79234073710534147e+01 0.0 0.0
1 -6.81108560893819686e+01 0.0 0.0
1 -4.05522594437662676e+01 0.0 0.0
1 -1.22724621234583296e+02 0.0 0.0
1 5.82724366778547065e+01 0.0 0.0
8
Step 670
1 9.66784238615254132e+00 0.0 0.0
1 -7.63292767939687167e+01 0.0 0.0
1 -5.21728382234195038e+01 0.0 0.0
1 7.25225425375738979e+01 0.0 0.0
1 -7.63010477882295390e+01 0.0 0.0
1 -4.24140345022885086e+01 0.0 0.0
1 -1.26572343144189190e+02 0.0 0.0
1 5.43347834211698526e+01 0.0 0.0
8
Step 680
1 1.11260929498331347e+01 0.0 0.0
1 -7.93179578753467496e+01 0.0 0.0
1 -5.94530278506506278e+01 0.0 0.0
1 7.62811448362267868e+01 0.0 0.0
1 -8.34715965229126624e+01 0.0 0.0
1 -4.40880534893916689e+01 0.0 0.0
1 -1.29278505985256572e+02 0.0 0.0
1 5.03586606337892633e+01 0.0 0.0
8
Step 690
1 1.28113573148646243e+01 0.0 0.0
1 -8.18165002847461125e+01 0.0 0.0
1 -6.60913065756968621e+01 0.0 0.0
1 7.91518096096253885e+01 0.0 0.0
1 -8.95169508232218050e+01 0.0 0.0
1 -4.55368022939193438e+01 0.0 0.0
1 -1.30811022331177043e+02 0.0 0.0
1 4.63787278359875117e+01 0.0 0.0
8
Step 700
1 1.46786147562693667e+01 0.0 0.0
1 -8.37756977076520712e+01 0.0 0.0
1 -7.20169728839624383e+01 0.0 0.0
1 8.10992238586114667e+01 0.0 0.0
1 -9.43483886137376686e+01 0.0 0.0
1 -4.67253642096247646e+01 0.0 0.0
1 -1.31152005435226698e+02 0.0 0.0
1 4.24252358068515605e+01 0.0 0.0
8
Step 710
1 1.66797990019415785e+01 0.0 0.0
1 -8.51507567933084744e+01 0.0 0.0
1 -7.71689451118109133e+01 0.0 0.0
1 8.21004319926958175e+01 0.0 0.0
1 -9.78948435253795424e+01 0.0 0.0
1 -4.76219503287484613e+01 0.0 0.0
1 -1.30297601000966580e+02 0.0 0.0
1 3.85240205450873958e+01 0.0 0.0
8
Step 720
1 1.87644156913760582e+01 0.0 0.0
1 -8.59017455409784247e+01 0.0 0.0
1 -8.14962618296207779e+01 0.0 0.0
1 8.21449861704471260e+01 0.0 0.0
1 -1.00103531321693580e+02 0.0 0.0
1 -4.81983858300331320e+01 0.0 0.0
1 -1.28257735529614905e+02 0.0 0.0
1 3.46965961589422633e+01 0.0 0.0
8
Step 730
1 2.08801806224856392e+01 0.0 0.0
1 -8.59940459143549276e+01 0.0 0.0
1 -8.49585145459883648e+01 0.0 0.0
1 8.12350038065343938e+01 0.0 0.0
1 -1.00940414781706906e+02 0.0 0.0
1 -4.84305573813469579e+01 0.0 0.0
1 -1.25055809684408956e+02 0.0 0.0
1 3.09603299890152925e+01 0.0 0.0
8
Step 740
1 2.29736772879656819e+01 0.0 0.0
1 -8.53988188254843834e+01 0.0 0.0
1 -8.75262279581938571e+01 0.0 0.0
1 7.93851451818267293e+01 0.0 0.0
1 -1.00390534009413471e+02 0.0 0.0
1 -4.82988251947728244e+01 0.0 0.0
1 -1.20728351293514876e+02 0.0 0.0
1 2.73286836729819953e+01 0.0 0.0
8
Step 750
1 2.49910344176649275e+01 0.0 0.0
1 -8.40934837318772139e+01 0.0 0.0
1 -8.91811932265395626e+01 0.0 0.0
1 7.66225130888183514e+01 0.0 0.0
1 -9.84582140853744505e+01 0.0 0.0
1 -4.77884002835028667e+01 0.0 0.0
1 -1.15324628086216876e+02 0.0 0.0
1 2.38115052735086934e+01 0.0 0.0
8
Step 760
1 2.68786253824607684e+01 0.0 0.0
1 -8.20622082267888118e+01 0.0 0.0
1 -8.99167493119830823e+01 0.0 0.0
1 7.29864654719537498e+01 0.0 0.0
1 -9.51671452441121630e+01 0.0 0.0
1 -4.68896836257642846e+01 0.0 0.0
1 -1.08906206667954407e+02 0.0 0.0
1 2.04153595686522458e+01 0.0 0.0
8
Step 770
1 2.85837907542932186e+01 0.0 0.0
1 -7.92963955796391815e+01 0.0 0.0
1 -8.97379971965410022e+01 0.0 0.0
1 6.85283223747994583e+01 0.0 0.0
1 -9.05603144126236259e+01 0.0 0.0
1 -4.55985597606366326e+01 0.0 0.0
1 -1.01546433035512237e+02 0.0 0.0
1 1.71438857574995112e+01 0.0 0.0
8
Step 780
1 3.00555828720196772e+01 0.0 0.0
1 -7.57951507374136071e+01 0.0 0.0
1 -8.86619228424743540e+01 0.0 0.0
1 6.33109413427208523e+01 0.0 0.0
1 -8.46997530085011050e+01 0.0 0.0
1 -4.39166333723919706e+01 0.0 0.0
1 -9.33298023228811644e+01 0.0 0.0
1 1.39981738541196350e+01 0.0 0.0
8
Step 790
1 3.12455271464867899e+01 0.0 0.0
1 -7.15656985287857736e+01 0.0 0.0
1 -8.67173981225632673e+01 0.0 0.0
1 5.74081317458568776e+01 0.0 0.0
1 -7.76660562721960446e+01 0.0 0.0
1 -4.18513942138368051e+01 0.0 0.0
1 -8.43511823862936723e+01 0.0 0.0
1 1.09771527168432854e+01 0.0 0.0
8
Step 800
1 3.21083895800233208e+01 0.0 0.0
1 -6.66237225813624292e+01 0.0 0.0
1 -8.39450256579346501e+01 0.0 0.0
1 5.09038790517530941e+01 0.0 0.0
1 -6.95576257301473220e+01 0.0 0.0
1 -3.94162937996045173e+01 0.0 0.0
1 -7.47148578848303657e+01 0.0 0.0
1 8.07798387014485897e+00 0.0 0.0
8
Step 810
1 3.26029343439428985e+01 0.0 0.0
1 -6.09935907149957046e+01 0.0 0.0
1 -8.03967942759510947e+01 0.0 0.0
1 4.38913553236213687e+01 0.0 0.0
1 -6.04895898144619224e+01 0.0 0.0
1 -3.66307171237417606e+01 0.0 0.0
1 -6.45333688640477732e+01 0.0 0.0
1 5.29645599405030598e+00 0.0 0.0
8
Step 820
1 3.26926501708164778e+01 0.0 0.0
1 -5.47084331792277752e+01 0.0 0.0
1 -7.61355170135154111e+01 0.0 0.0
1 3.64717021052405528e+01 0.0 0.0
1 -5.05923686432126942e+01 0.0 0.0
1 -3.35198345439576570e+01 0.0 0.0
1 -5.39261301428198081e+01 0.0 0.0
1 2.62737522828366066e+00 0.0 0.0
8
Step 830
1 3.23464207189154891e+01 0.0 0.0
1 -4.78100446283294218e+01 0.0 0.0
1 -7.12340331201053090e+01 0.0 0.0
1 2.87525857290570706e+01 0.0 0.0
1 -4.00098669940688580e+01 0.0 0.0
1 -3.01143230339807246e+01 0.0 0.0
1 -4.30178340605215297e+01 0.0 0.0
1 6.49463731240266240e-02 0.0 0.0
8
Step 840
1 3.15391127594828262e+01 0.0 0.0
1 -4.03485892216582158e+01 0.0 0.0
1 -6.57741686917088941e+01 0.0 0.0
1 2.08465416498989775e+01 0.0 0.0
1 -2.88973030274686025e+01 0.0 0.0
1 -2.64499520558136503e+01 0.0 0.0
1 -3.19366577610409159e+01 0.0 0.0
1 -2.39686018503470422e+00 0.0 0.0
8
Step 850
1 3.02520575218458454e+01 0.0 0.0
1 -3.23821000963691858e+01 0.0 0.0
1 -5.98454661780017787e+01 0.0 0.0
1 1.28691417954613687e+01 0.0 0.0
1 -1.74187067950290704e+01 0.0 0.0
1 -2.25670368475229317e+01 0.0 0.0
1 -2.08123150539447579e+01 0.0 0.0
1 -4.76396127231829691e+00 0.0 0.0
8
Step 860
1 2.84734048710657568e+01 0.0 0.0
1 -2.39757784395070175e+01 0.0 0.0
1 -5.35437093778701438e+01 0.0 0.0
1 4.93703493441991448e+00 0.0 0.0
1 -5.74414877435771842e+00 0.0 0.0
1 -1.85097701733818099e+01 0.0 0.0
1 -9.77400961234530286e+00 0.0 0.0
1 -7.04183904296564656e+00 0.0 0.0
8
Step 870
1 2.61983367755849876e+01 0.0 0.0
1 -1.52011117758458596e+01 0.0 0.0
1 -4.69692857231118737e+01 0.0 0.0
1 -2.83407749704864420e+00 0.0 0.0
1 5.95321883984566380e+00 0.0 0.0
1 -1.43254515641540880e+01 0.0 0.0
1 1.05164145817011834e+00 0.0 0.0
1 -9.23524989584523937e+00 0.0 0.0
8
Step 880
1 2.34291349198434133e+01 0.0 0.0
1 -6.13484400712153111e+00 0.0 0.0
1 -4.02254396904798170e+01 0.0 0.0
1 -1.03314605933298367e+01 0.0 0.0
1 1.75002096677515695e+01 0.0 0.0
1 -1.00636397684178895e+01 0.0 0.0
1 1.15426386181765963e+01 0.0 0.0
1 -1.13479692518045514e+01 0.0 0.0
8
Step 890
1 2.01751062312118101e+01 0.0 0.0
1 3.14216051253720297e+00 0.0 0.0
1 -3.34164784362893883e+01 0.0 0.0
1 -1.74472900318735213e+01 0.0 0.0
1 2.87266343574047909e+01 0.0 0.0
1 -5.77525865961724438e+00 0.0 0.0
1 2.15835115727630225e+01 0.0 0.0
1 -1.33825765171054254e+01 0.0 0.0
8
Step 900
1 1.64523783495901554e+01 0.0 0.0
1 1.25461112148950207e+01 0.0 0.0
1 -2.66459921968718128e+01 0.0 0.0
1 -2.40804566937647166e+01 0.0 0.0
1 3.94682134459855547e+01 0.0 0.0
1 -1.51168861561072809e+00 0.0 0.0
1 3.10670460123763768e+01 0.0 0.0
1 -1.53402835812697411e+01 0.0 0.0
8
Step 910
1 1.22835836279847754e+01 0.0 0.0
1 2.19914957687035582e+01 0.0 0.0
1 -2.00151474681796699e+01 0.0 0.0
1 -3.01381791214986841e+01 0.0 0.0
1 4.95692821682802602e+01 0.0 0.0
1 2.67612576427351767e+00 0.0 0.0
1 3.98957740096299744e+01 0.0 0.0
1 -1.72208090933539886e+01 0.0 0.0
8
Step 920
1 7.69745437395225629e+00 0.0 0.0
1 3.13922508999748864e+01 0.0 0.0
1 -1.36211012109288863e+01 0.0 0.0
1 -3.55373866217569940e+01 0.0 0.0
1 5.88852171103466731e+01 0.0 0.0
1 6.73852454600253825e+00 0.0 0.0
1 4.79831948186336135e+01 0.0 0.0
1 -1.90222996635548149e+01 0.0 0.0
8
Step 930
1 2.72835340626610812e+00 0.0 0.0
1 4.06628638459296852e+01 0.0 0.0
1 -7.55557087085442625e+00 0.0 0.0
1 -4.02058531429260526e+01 0.0 0.0
1 6.72845385483046527e+01 0.0 0.0
1 1.06279167011764866e+01 0.0 0.0
1 5.52547124513657550e+01 0.0 0.0
1 -2.07412981711908380e+01 0.0 0.0
8
Step 940
1 -2.58423726211813110e+00 0.0 0.0
1 4.97193793515508133e+01 0.0 0.0
1 -1.90357992454154257e+00 0.0 0.0
1 -4.40830788497645969e+01 0.0 0.0
1 7.46506672492992465e+01 0.0 0.0
1 1.42994853588437305e+01 0.0 0.0
1 6.16482950094601563e+01 0.0 0.0
1 -2.23727586129254057e+01 0.0 0.0
8
Step 950
1 -8.19625019245732211e+00 0.0 0.0
1 5.84802987773279668e+01 0.0 0.0
1 3.25761585438552714e+00 0.0 0.0
1 -4.71209305507536271e+01 0.0 0.0
1 8.08833372601921639e+01 0.0 0.0
1 1.77118067562265793e+01 0.0 0.0
1 6.71148762052743564e+01 0.0 0.0
1 -2.39101064310075451e+01 0.0 0.0
8
Step 960
1 -1.40595741121599360e+01 0.0 0.0
1 6.68673690843510826e+01 0.0 0.0
1 7.85942828401172822e+00 0.0 0.0
1 -4.92840623647352558e+01 0.0 0.0
1 8.58996842491041832e+01 0.0 0.0
1 2.08273818429175321e+01 0.0 0.0
1 7.16185303556331121e+01 0.0 0.0
1 -2.53453429978204703e+01 0.0 0.0
8
Step 970
1 -2.01225941419836758e+01 0.0 0.0
1 7.48062689662573490e+01 0.0 0.0
1 1.18426780614650529e+01 0.0 0.0
1 -5.05501435459840494e+01 0.0 0.0
1 8.96350407539207481e+01 0.0 0.0
1 2.36130843373716033e+01 0.0 0.0
1 7.51364577171077883e+01 0.0 0.0
1 -2.66691928282874215e+01 0.0 0.0
8
Step 980
1 -2.63307268824417910e+01 0.0 0.0
1 8.22272063445072945e+01 0.0 0.0
1 1.51581968617279568e+01 0.0 0.0
1 -5.09099212680324129e+01 0.0 0.0
1 9.20434747586011639e+01 0.0 0.0
1 2.60405320847867827e+01 0.0 0.0
1 7.76588174684345205e+01 0.0 0.0
1 -2.78712920399290418e+01 0.0 0.0
8
Step 990
1 -3.26269514354626935e+01 0.0 0.0
1 8.90654453863085109e+01 0.0 0.0
1 1.77673098222557257e+01 0.0 0.0
1 -5.03671430549271690e+01 0.0 0.0
1 9.30981068488751475e+01 0.0 0.0
1 2.80863897429300913e+01 0.0 0.0
1 7.91884416757209237e+01 0.0 0.0
1 -2.89404164608840766e+01 0.0 0.0
8
Step 1000
1 -3.89523413264702896e+01 0.0 0.0
1 9.52617820871550123e+01 0.0 0.0
1 1.96422148197240531e+01 0.0 0.0
1 -4.89383575105854405e+01 0.0 0.0
1 9.27912349889115546e+01 0.0 0.0
1 2.97326102960702983e+01 0.0 0.0
1 7.97404563600509135e+01 0.0 0.0
1 -2.98647474822625476e+01 0.0 0.0
8
Step 1010
1 -4.52466049188445325e+01 0.0 0.0
1 1.00762985550182492e+02 0.0 0.0
1 2.07662693858489220e+01 0.0 0.0
1 -4.66526042942218808e+01 0.0 0.0
1 9.11342863136856920e+01 0.0 0.0
1 3.09666210135271562e+01 0.0 0.0
1 7.93418266918459523e+01 0.0 0.0
1 -3.06321731669464405e+01 0.0 0.0
8
Step 1020
1 -5.14486430688975815e+01 0.0 0.0
1 1.05522217895938169e+02 0.0 0.0
1 2.11341891807651514e+01 0.0 0.0
1 -4.35509962014041108e+01 0.0 0.0
1 8.81576039869514005e+01 0.0 0.0
1 3.17814566785350081e+01 0.0 0.0
1 7.80308337546404971e+01 0.0 0.0
1 -3.12306212017102922e+01 0.0 0.0
8
Step 1030
1 -5.74971323451650491e+01 0.0 0.0
1 1.09499439902316951e+02 0.0 0.0
1 2.07521546494837033e+01 0.0 0.0
1 -3.96861889069595719e+01 0.0 0.0
1 8.39100658089911775e+01 0.0 0.0
1 3.21758397059754770e+01 0.0 0.0
1 7.58564815318743513e+01 0.0 0.0
1 -3.16484189995453242e+01 0.0 0.0
8
Step 1040
1 -6.33311401372702321e+01 0.0 0.0
1 1.12661802739548989e+02 0.0 0.0
1 1.96378157683523575e+01 0.0 0.0