8
Step 0
1 -3.94061988146087572e+01 0.0 0.0
1 1.18916196883487657e+02 0.0 0.0
1 8.55685290802887550e+01 0.0 0.0
1 1.36501938020772457e+02 0.0 0.0
1 -1.35308016235196362e+01 0.0 0.0
1 -9.09223133699828878e+01 0.0 0.0
1 6.65428271204233965e+01 0.0 0.0
1 -1.05348507972668870e+02 0.0 0.0
8
Step 10
1 -4.49767569944988779e+01 0.0 0.0
1 1.15765458883053526e+02 0.0 0.0
1 8.06724574907853480e+01 0.0 0.0
1 1.34208903713060380e+02 0.0 0.0
1 -1.60247591790684361e+01 0.0 0.0
1 -7.85939531334263677e+01 0.0 0.0
1 5.76127656828167360e+01 0.0 0.0
1 -1.02342810424068375e+02 0.0 0.0
8
Step 20
1 -5.04157881120751767e+01 0.0 0.0
1 1.11507718659938092e+02 0.0 0.0
1 7.50728828026541919e+01 0.0 0.0
1 1.30297275088805208e+02 0.0 0.0
1 -1.81081126332710589e+01 0.0 0.0
1 -6.51480668826749252e+01 0.0 0.0
1 4.86268934272718028e+01 0.0 0.0
1 -9.86394590434203877e+01 0.0 0.0
8
Step 30
1 -5.55946199760873228e+01 0.0 0.0
1 1.06201531345472219e+02 0.0 0.0
1 6.88420119157028125e+01 0.0 0.0
1 1.24812333541414660e+02 0.0 0.0
1 -1.97791222082129430e+01 0.0 0.0
1 -5.07127861660325152e+01 0.0 0.0
1 3.97080656597108472e+01 0.0 0.0
1 -9.43030934985303020e+01 0.0 0.0
8
Step 40
1 -6.03839093026945974e+01 0.0 0.0
1 9.99188990907400125e+01 0.0 0.0
1 6.20615494084041401e+01 0.0 0.0
1 1.17823020587044894e+02 0.0 0.0
1 -2.10424532743980564e+01 0.0 0.0
1 -3.54326820791177539e+01 0.0 0.0
1 3.09775084108742789e+01 0.0 0.0
1 -8.94064254007809183e+01 0.0 0.0
8
Step 50
1 -6.46560503857877933e+01 0.0 0.0
1 9.27445004860427957e+01 0.0 0.0
1 5.48217939598087938e+01 0.0 0.0
1 1.09421538239004192e+02 0.0 0.0
1 -2.19091174155302255e+01 0.0 0.0
1 -1.94672263214678125e+01 0.0 0.0
1 2.25529638845755436e+01 0.0 0.0
1 -8.40292390483729292e+01 0.0 0.0
8
Step 60
1 -6.82877234189299571e+01 0.0 0.0
1 8.47746289489059563e+01 0.0 0.0
1 4.72204733296082253e+01 0.0 0.0
1 9.97224366966571267e+01 0.0 0.0
1 -2.23962949748513012e+01 0.0 0.0
1 -2.98877985453250350e+00 0.0 0.0
1 1.45467484144274035e+01 0.0 0.0
1 -7.82571734231966758e+01 0.0 0.0
8
Step 70
1 -7.11625088438014757e+01 0.0 0.0
1 7.61158215051370775e+01 0.0 0.0
1 3.93613178413938058e+01 0.0 0.0
1 8.88611365618152149e+01 0.0 0.0
1 -2.25270232081224364e+01 0.0 0.0
1 1.38198872544939224e+01 0.0 0.0
1 7.06377882122369805e+00 0.0 0.0
1 -7.21802911786095365e+01 0.0 0.0
8
Step 80
1 -7.31734764564037761e+01 0.0 0.0
1 6.68831824735984810e+01 0.0 0.0
1 3.13523931057715366e+01 0.0 0.0
1 7.69918653948845844e+01 0.0 0.0
1 -2.23297400678816729e+01 0.0 0.0
1 3.07685039252617258e+01 0.0 0.0
1 1.99639372172123464e-01 0.0 0.0
1 -6.58914592439449223e+01 0.0 0.0
8
Step 90
1 -7.42256473110322332e+01 0.0 0.0
1 5.71984324602703822e+01 0.0 0.0
1 2.33042340644937553e+01 0.0 0.0
1 6.42850283747399516e+01 0.0 0.0
1 -2.18376820254060178e+01 0.0 0.0
1 4.76625552317773611e+01 0.0 0.0
1 -5.96122827483235795e+00 0.0 0.0
1 -5.94845846584935813e+01 0.0 0.0
8
Step 100
1 -7.42382249361506723e+01 0.0 0.0
1 4.71877385285593434e+01 0.0 0.0
1 1.53278415758709183e+01 0.0 0.0
1 5.09240755179282800e+01 0.0 0.0
1 -2.10881442894695930e+01 0.0 0.0
1 6.43067760153112005e+01 0.0 0.0
1 -1.13471276349716828e+01 0.0 0.0
1 -5.30527657811712956e+01 0.0 0.0
8
Step 110
1 -7.31465010021447171e+01 0.0 0.0
1 3.69794030151716981e+01 0.0 0.0
1 7.53261704284242040e+00 0.0 0.0
1 3.71019679224832615e+01 0.0 0.0
1 -2.01216220823372574e+01 0.0 0.0
1 8.05087434629793961e+01 0.0 0.0
1 -1.59004247488843902e+01 0.0 0.0
1 -4.66864307239854028e+01 0.0 0.0
8
Step 120
1 -7.09033588354402724e+01 0.0 0.0
1 2.67015031668587497e+01 0.0 0.0
1 2.43179290350621358e-02 0.0 0.0
1 2.30173774737830783e+01 0.0 0.0
1 -1.89808609406611630e+01 0.0 0.0
1 9.60824189072338868e+01 0.0 0.0
1 -1.95785178473732628e+01 0.0 0.0
1 -4.04715399488690153e+01 0.0 0.0
8
Step 130
1 -6.74803240182481829e+01 0.0 0.0
1 1.64795794730848648e+01 0.0 0.0
1 -7.09688369887615700e+00 0.0 0.0
1 8.87077402633541467e+00 0.0 0.0
1 -1.77098510855589701e+01 0.0 0.0
1 1.10851491360163578e+02 0.0 0.0
1 -2.23544187949681969e+01 0.0 0.0
1 -3.44879276087459559e+01 0.0 0.0
8
Step 140
1 -6.28681414866966861e+01 0.0 0.0
1 6.43446646899542429e+00 0.0 0.0
1 -1.37381661446623529e+01 0.0 0.0
1 -5.13944131742528398e+00 0.0 0.0
1 -1.63528048383322968e+01 0.0 0.0
1 1.24652391890401830e+02 0.0 0.0
1 -2.42169316257320340e+01 0.0 0.0
1 -2.88078466776664257e+01 0.0 0.0
8
Step 150
1 -5.70768891001455785e+01 0.0 0.0
1 -3.31965344816548269e+00 0.0 0.0
1 -1.98155884947847234e+01 0.0 0.0
1 -1.88206088928214612e+01 0.0 0.0
1 -1.49531564136512110e+01 0.0 0.0
1 1.37336876558895199e+02 0.0 0.0
1 -2.51704398682930339e+01 0.0 0.0
1 -2.34947675494888593e+01 0.0 0.0
8
Step 160
1 -5.01356646630901679e+01 0.0 0.0
1 -1.26769130011865254e+01 0.0 0.0
1 -2.52553482279271186e+01 0.0 0.0
1 -3.19891651820378122e+01 0.0 0.0
1 -1.35526203156406151e+01 0.0 0.0
1 1.48774112199151716e+02 0.0 0.0
1 -2.52343379192973707e+01 0.0 0.0
1 -1.86024607684581262e+01 0.0 0.0
8
Step 170
1 -4.20919035882835502e+01 0.0 0.0
1 -2.15411041378648171e+01 0.0 0.0
1 -2.99947492595922256e+01 0.0 0.0
1 -4.44735890430766148e+01 0.0 0.0
1 -1.21903386157260840e+01 0.0 0.0
1 1.58852238794702487e+02 0.0 0.0
1 -2.44421596882977852e+01 0.0 0.0
1 -1.41743744975127548e+01 0.0 0.0
8
Step 180
1 -3.30103957707343270e+01 0.0 0.0
1 -2.98266928690234536e+01 0.0 0.0
1 -3.39828839069853856e+01 0.0 0.0
1 -5.61168868028767207e+01 0.0 0.0
1 -1.09021395952404614e+01 0.0 0.0
1 1.67479419392603916e+02 0.0 0.0
1 -2.28404683496694965e+01 0.0 0.0
1 -1.02432988037357475e+01 0.0 0.0
8
Step 190
1 -2.29720722775099837e+01 0.0 0.0
1 -3.74595172998480663e+01 0.0 0.0
1 -3.71810488250602020e+01 0.0 0.0
1 -6.67786005591560752e+01 0.0 0.0
1 -9.71992175067533815e+00 0.0 0.0
1 1.74584418974655989e+02 0.0 0.0
1 -2.04875737952919863e+01 0.0 0.0
1 -6.83129394669948375e+00 0.0 0.0
8
Step 200
1 -1.20726261093523348e+01 0.0 0.0
1 -4.43771992061985046e+01 0.0 0.0
1 -3.95629261986349618e+01 0.0 0.0
1 -7.63363556037121214e+01 0.0 0.0
1 -8.67116909792764368e+00 0.0 0.0
1 1.80116774490685714e+02 0.0 0.0
1 -1.74521400052176716e+01 0.0 0.0
1 -3.94984991482114101e+00 0.0 0.0
8
Step 210
1 -4.21018699569411403e-01 0.0 0.0
1 -5.05293109378058105e+01 0.0 0.0
1 -4.11145667188900958e+01 0.0 0.0
1 -8.46869857943765112e+01 0.0 0.0
1 -7.77859695529725492e+00 0.0 0.0
1 1.84046628110220752e+02 0.0 0.0
1 -1.38117347327590974e+01 0.0 0.0
1 -1.60023987402610501e+00 0.0 0.0
8
Step 220
1 1.18620921768783365e+01 0.0 0.0
1 -5.58773440237163186e+01 0.0 0.0
1 -4.18342104435207034e+01 0.0 0.0
1 -9.17472884598950742e+01 0.0 0.0
1 -7.05992246674767809e+00 0.0 0.0
1 1.86364295183934360e+02 0.0 0.0
1 -9.65136089632742333e+00 0.0 0.0
1 2.25969480665324074e-01 0.0 0.0
8
Step 230
1 2.46459838121677848e+01 0.0 0.0
1 -6.03945242526038157e+01 0.0 0.0
1 -4.17319766469597084e+01 0.0 0.0
1 -9.74544632305042171e+01 0.0 0.0
1 -6.52775119898381107e+00 0.0 0.0
1 1.87079629352581406e+02 0.0 0.0
1 -5.06199526981683423e+00 0.0 0.0
1 1.54628355577181176e+00 0.0 0.0
8
Step 240
1 3.77915541662169829e+01 0.0 0.0
1 -6.40655115915994742e+01 0.0 0.0
1 -4.08294458163480130e+01 0.0 0.0
1 -1.01766283665179969e+02 0.0 0.0
1 -6.18957002097445219e+00 0.0 0.0
1 1.86221232523548622e+02 0.0 0.0
1 -1.39147586770237086e-01 0.0 0.0
1 2.38654791526437204e+00 0.0 0.0
8
Step 250
1 5.11530664354677995e+01 0.0 0.0
1 -6.68860138927421559e+01 0.0 0.0
1 -3.91591478222900946e+01 0.0 0.0
1 -1.04661039241277777e+02 0.0 0.0
1 -6.04783672095496883e+00 0.0 0.0
1 1.83835540208790860e+02 0.0 0.0
1 5.01855639997267922e+00 0.0 0.0
1 2.78013799956009988e+00 0.0 0.0
8
Step 260
1 6.45799618907727506e+01 0.0 0.0
1 -6.88623327976611108e+01 0.0 0.0
1 -3.67639616646529035e+01 0.0 0.0
1 -1.06137271130626559e+02 0.0 0.0
1 -6.10015787507220519e+00 0.0 0.0
1 1.79985795970048571e+02 0.0 0.0
1 1.03107701289563067e+01 0.0 0.0
1 2.76708315683574124e+00 0.0 0.0
8
Step 270
1 7.79187491800286409e+01 0.0 0.0
1 -7.00108502860663435e+01 0.0 0.0
1 -3.36964254190619172e+01 0.0 0.0
1 -1.06213311082428476e+02 0.0 0.0
1 -6.33954778195836521e+00 0.0 0.0
1 1.74750914903439110e+02 0.0 0.0
1 1.56368036798720933e+01 0.0 0.0
1 2.39313269828992681e+00 0.0 0.0
8
Step 280
1 9.10149721050515694e+01 0.0 0.0
1 -7.03574562576586544e+01 0.0 0.0
1 -3.00179510036298431e+01 0.0 0.0
1 -1.04926621107816075e+02 0.0 0.0
1 -6.75476232621734596e+00 0.0 0.0
1 1.68224226925713566e+02 0.0 0.0
1 2.08969855321820326e+01 0.0 0.0
1 1.70876900482257255e+00 0.0 0.0
8
Step 290
1 1.03715247815091615e+02 0.0 0.0
1 -6.99369122706139024e+01 0.0 0.0
1 -2.57979375702784921e+01 0.0 0.0
1 -1.02332924283172588e+02 0.0 0.0
1 -7.33070208091455111e+00 0.0 0.0
1 1.60512086978090451e+02 0.0 0.0
1 2.59940060081761324e+01 0.0 0.0
1 7.68172439967897080e-01 0.0 0.0
8
Step 300
1 1.15869355072584014e+02 0.0 0.0
1 -6.87921444813270000e+01 0.0 0.0
1 -2.11127796393741214e+01 0.0 0.0
1 -9.85051148333344031e+01 0.0 0.0
1 -8.04887862941183840e+00 0.0 0.0
1 1.51732341200501281e+02 0.0 0.0
1 3.08342334352449647e+01 0.0 0.0
1 -3.71855280615485562e-01 0.0 0.0
8
Step 310
1 1.27332339647861872e+02 0.0 0.0
1 -6.69734598772563601e+01 0.0 0.0
1 -1.60447710467185232e+01 0.0 0.0
1 -9.35319388677724248e+01 0.0 0.0
1 -8.88793698485121197e+00 0.0 0.0
1 1.42012644969046136e+02 0.0 0.0
1 3.53289873556312628e+01 0.0 0.0
1 -1.65299911233516927e+00 0.0 0.0
8
Step 320
1 1.37966592909290824e+02 0.0 0.0
1 -6.45376836007697108e+01 0.0 0.0
1 -1.06809125201495263e+01 0.0 0.0
1 -8.75164450887023833e+01 0.0 0.0
1 -9.82422527656963496e+00 0.0 0.0
1 1.31488639145434576e+02 0.0 0.0
1 3.93957472847941759e+01 0.0 0.0
1 -3.01655561592285260e+00 0.0 0.0
8
Step 330
1 1.47643851985957156e+02 0.0 0.0
1 -6.15472207422917634e+01 0.0 0.0
1 -5.11163818636490941e+00 0.0 0.0
1 -8.05742161780741526e+01 0.0 0.0
1 -1.08324008435293901e+01 0.0 0.0
1 1.20302003248105038e+02 0.0 0.0
1 4.29592716233222021e+01 0.0 0.0
1 -4.40455602140028457e+00 0.0 0.0
8
Step 340
1 1.56247066727537941e+02 0.0 0.0
1 -5.80690524475595353e+01 0.0 0.0
1 5.70516613776124948e-01 0.0 0.0
1 -7.28314046463009248e+01 0.0 0.0
1 -1.18860598792520396e+01 0.0 0.0
1 1.08598416612909389e+02 0.0 0.0
1 4.59526000848506584e+01 0.0 0.0
1 -5.76086518988994545e+00 0.0 0.0
8
Step 350
1 1.63672080667988240e+02 0.0 0.0
1 -5.41736824811680435e+01 0.0 0.0
1 6.27227820926309665e+00 0.0 0.0
1 -6.44226097291269184e+01 0.0 0.0
1 -1.29583761685241718e+01 0.0 0.0
1 9.65254691197538364e+01 0.0 0.0
1 4.83179147124358863e+01 0.0 0.0
1 -7.03223229302679975e+00 0.0 0.0
8
Step 360
1 1.69829080177380661e+02 0.0 0.0
1 -4.99340555415376954e+01 0.0 0.0
1 1.19009968599557681e+01 0.0 0.0
1 -5.54886425752273382e+01 0.0 0.0
1 -1.40227335428034969e+01 0.0 0.0
1 8.42305701923862813e+01 0.0 0.0
1 5.00072390559157469e+01 0.0 0.0
1 -8.16926897463446089e+00 0.0 0.0
8
Step 370
1 1.74643777098726105e+02 0.0 0.0
1 -4.54244718731553192e+01 0.0 0.0
1 1.73659764858448114e+01 0.0 0.0
1 -4.61742339704004081e+01 0.0 0.0
1 -1.50533366489172735e+01 0.0 0.0
1 7.18589075409982030e+01 0.0 0.0
1 5.09829617827191655e+01 0.0 0.0
1 -9.12733267274669480e+00 0.0 0.0
8
Step 380
1 1.78058303966954497e+02 0.0 0.0
1 -4.07195236350766692e+01 0.0 0.0
1 2.25797421466198642e+01 0.0 0.0
1 -3.66257412850451232e+01 0.0 0.0
1 -1.60257855246261798e+01 0.0 0.0
1 5.95515051952543146e+01 0.0 0.0
1 5.12181789800341463e+01 0.0 0.0
1 -9.86729642081697911e+00 0.0 0.0
8
Step 390
1 1.80031815601768471e+02 0.0 0.0
1 -3.58930769992310346e+01 0.0 0.0
1 2.74592201363890851e+01 0.0 0.0
1 -2.69889090211293805e+01 0.0 0.0
1 -1.69176012116472130e+01 0.0 0.0
1 4.74434241521152700e+01 0.0 0.0
1 5.06968575971818041e+01 0.0 0.0
1 -1.03561913124643254e+01 0.0 0.0
8
Step 400
1 1.80540804612740260e+02 0.0 0.0
1 -3.10173203694146800e+01 0.0 0.0
1 3.19268118086715411e+01 0.0 0.0
1 -1.74067308012927455e+01 0.0 0.0
1 -1.77086919981644328e+01 0.0 0.0
1 3.56621394269024776e+01 0.0 0.0
1 4.94138298116222074e+01 0.0 0.0
1 -1.05677132403514324e+01 0.0 0.0
8
Step 410
1 1.79579149561101673e+02 0.0 0.0
1 -2.61618940227767141e+01 0.0 0.0
1 3.59113492378318853e+01 0.0 0.0
1 -8.01745100223564400e+00 0.0 0.0
1 -1.83817525793373981e+01 0.0 0.0
1 2.43261158464537530e+01 0.0 0.0
1 4.73746337096309702e+01 0.0 0.0
1 -1.04825908058494939e+01 0.0 0.0
8
Step 420
1 1.77157922082619137e+02 0.0 0.0
1 -2.13931106428031512e+01 0.0 0.0
1 3.93489275902657027e+01 0.0 0.0
1 1.04726703322539882e+00 0.0 0.0
1 -1.89225911463262051e+01 0.0 0.0
1 1.35435931163289069e+01 0.0 0.0
1 4.45952190027465747e+01 0.0 0.0
1 -1.00888158271861741e+01 0.0 0.0
8
Step 430
1 1.73304982706210154e+02 0.0 0.0
1 -1.67732704348292962e+01 0.0 0.0
1 4.21836147770384358e+01 0.0 0.0
1 9.66399059169270735e+00 0.0 0.0
1 -1.93203818865706154e+01 0.0 0.0
1 3.41157998571345944e+00 0.0 0.0
1 4.11015373854672958e+01 0.0 0.0
1 -9.38174121837691999e+00 0.0 0.0
8
Step 440
1 1.68064394557689695e+02 0.0 0.0
1 -1.23600694993571931e+01 0.0 0.0
1 4.43680429857281666e+01 0.0 0.0
1 1.77189793396037381e+01 0.0 0.0
1 -1.95678424016351507e+01 0.0 0.0
1 -5.98495113334084650e+00 0.0 0.0
1 3.69290357833981702e+01 0.0 0.0
1 -8.36405297635041300e+00 0.0 0.0
8
Step 450
1 1.61495680317646674e+02 0.0 0.0
1 -8.20609640596668832e+00 0.0 0.0
1 4.58638887472538457e+01 0.0 0.0
1 2.51094611244056267e+01 0.0 0.0
1 -1.96613370248508339e+01 0.0 0.0
1 -1.45736832648742709e+01 0.0 0.0
1 3.21220676522239259e+01 0.0 0.0
1 -7.04562365177674010e+00 0.0 0.0
8
Step 460
1 1.53672941788400067e+02 0.0 0.0
1 -4.35840974481845755e+00 0.0 0.0
1 4.66422483041004767e+01 0.0 0.0
1 3.17447282769062689e+01 0.0 0.0
1 -1.96009079528738113e+01 0.0 0.0
1 -2.22954042414231957e+01 0.0 0.0
1 2.67332333690563075e+01 0.0 0.0
1 -5.44325425300058718e+00 0.0 0.0
8
Step 470
1 1.44683854482966041e+02 0.0 0.0
1 -8.58188872908342892e-01 0.0 0.0
1 4.66839135056943491e+01 0.0 0.0
1 3.75470623371129335e+01 0.0 0.0
1 -1.93902365845275746e+01 0.0 0.0
1 -2.91043023808007639e+01 0.0 0.0
1 2.08226563844426273e+01 0.0 0.0
1 -3.58031045073005805e+00 0.0 0.0
8
Step 480
1 1.34628543039065818e+02 0.0 0.0
1 2.25954905699366027e+00 0.0 0.0
1 4.59795507632219156e+01 0.0 0.0
1 4.24524938663352458e+01 0.0 0.0
1 -1.90365376392308256e+01 0.0 0.0
1 -3.49681216570622766e+01 0.0 0.0
1 1.44571979122124326e+01 0.0 0.0
1 -1.48625768989152029e+00 0.0 0.0
8
Step 490
1 1.23618338081261427e+02 0.0 0.0
1 4.96617073281793964e+00 0.0 0.0
1 4.45297823635564072e+01 0.0 0.0
1 4.64114007054980107e+01 0.0 0.0
1 -1.85503886870009325e+01 0.0 0.0
1 -3.98681852126662193e+01 0.0 0.0
1 7.70961013451898758e+00 0.0 0.0
1 8.03901159382607533e-01 0.0 0.0
8
Step 500
1 1.11774412228223866e+02 0.0 0.0
1 7.23958931340055045e+00 0.0 0.0
1 4.23451663122810942e+01 0.0 0.0
1 4.93889435919097721e+01 0.0 0.0
1 -1.79454978403156638e+01 0.0 0.0
1 -4.37992911250074073e+01 0.0 0.0
1 6.57626613021449202e-01 0.0 0.0
1 3.25028227749993714e+00 0.0 0.0
8
Step 510
1 9.92262927529871916e+01 0.0 0.0
1 9.06436758088343453e+00 0.0 0.0
1 3.94460684426572499e+01 0.0 0.0
1 5.13653334331253575e+01 0.0 0.0
1 -1.72384126820301624e+01 0.0 0.0
1 -4.67694797054768472e+01 0.0 0.0
1 -6.61701097260658688e+00 0.0 0.0
1 5.80886752169120690e+00 0.0 0.0
8
Step 520
1 8.61102510661233964e+01 0.0 0.0
1 1.04317586226759627e+01 0.0 0.0
1 3.58624192723219721e+01 0.0 0.0
1 5.23359206963276407e+01 0.0 0.0
1 -1.64481741284036040e+01 0.0 0.0
1 -4.87996680466982511e+01 0.0 0.0
1 -1.40295885146278074e+01 0.0 0.0
1 8.43233553910263289e+00 0.0 0.0
8
Step 530
1 7.25675744554036299e+01 0.0 0.0
1 1.13396792032741125e+01 0.0 0.0
1 3.16333483331997556e+01 0.0 0.0
1 5.23110951002888314e+01 0.0 0.0
1 -1.55959198829578405e+01 0.0 0.0
1 -4.99231456284881077e+01 0.0 0.0
1 -2.14935127750112329e+01 0.0 0.0
1 1.10709690338682929e+01 0.0 0.0
8
Step 540
1 5.87427328013079091e+01 0.0 0.0
1 1.17926101074732692e+01 0.0 0.0
1 2.68066905690830737e+01 0.0 0.0
1 5.13159836613762508e+01 0.0 0.0
1 -1.47044433878500396e+01 0.0 0.0
1 -5.01849248910158678e+01 0.0 0.0
1 -2.89214528661184396e+01 0.0 0.0
1 1.36736264302807307e+01 0.0 0.0
8
Step 550
1 4.47814614500408368e+01 0.0 0.0
1 1.18014179917605180e+01 0.0 0.0
1 2.14383628062370306e+01 0.0 0.0
1 4.93899374222264740e+01 0.0 0.0
1 -1.37977156239920564e+01 0.0 0.0
1 -4.96409428631248630e+01 0.0 0.0
1 -3.62265154224545398e+01 0.0 0.0
1 1.61887623535701941e+01 0.0 0.0
8
Step 560
1 3.08287900449248653e+01 0.0 0.0
1 1.13830946909793198e+01 0.0 0.0
1 1.55916129672449912e+01 0.0 0.0
1 4.65858018360388044e+01 0.0 0.0
1 -1.29003785994849771e+01 0.0 0.0
1 -4.83571140031626925e+01 0.0 0.0
1 -4.33234340838580323e+01 0.0 0.0
1 1.85654775840098445e+01 0.0 0.0
8
Step 570
1 1.70270548174293594e+01 0.0 0.0
1 1.05604123671347541e+01 0.0 0.0
1 9.33615015370351031e+00 0.0 0.0
1 4.29689724252363163e+01 0.0 0.0
1 -1.20372207208375723e+01 0.0 0.0
1 -4.64082399318748600e+01 0.0 0.0
1 -5.01297498446112328e+01 0.0 0.0
1 2.07545759102937986e+01 0.0 0.0
8
Step 580
1 3.51393762202075477e+00 0.0 0.0
1 9.36149609868635757e+00 0.0 0.0
1 2.74716938390364529e+00 0.0 0.0
1 3.86162453367506373e+01 0.0 0.0
1 -1.12326452850329446e+01 0.0 0.0
1 -4.38767880833192052e+01 0.0 0.0
1 -5.65669561408330495e+01 0.0 0.0
1 2.27096030594643778e+01 0.0 0.0
8
Step 590
1 -9.57942192472405196e+00 0.0 0.0
1 7.81931913346661123e+00 0.0 0.0
1 -4.09570999614830100e+00 0.0 0.0
1 3.36144809366659558e+01 0.0 0.0
1 -1.05101439122800890e+01 0.0 0.0
1 -4.08515577305128446e+01 0.0 0.0
1 -6.25615816546211718e+01 0.0 0.0
1 2.43878419565436566e+01 0.0 0.0
8
Step 600
1 -2.21301949400102806e+01 0.0 0.0
1 5.97112965374600435e+00 0.0 0.0
1 -1.11095690023948528e+01 0.0 0.0
1 2.80591066989470299e+01 0.0 0.0
1 -9.89178676067268903e+00 0.0 0.0
1 -3.74262576047931432e+01 0.0 0.0
1 -6.80461848958996569e+01 0.0 0.0
1 2.57512391560462746e+01 0.0 0.0
8
Step 610
1 -3.40254695019201279e+01 0.0 0.0
1 3.85782111623302626e+00 0.0 0.0
1 -1.82093508697059399e+01 0.0 0.0
1 2.20524924643549411e+01 0.0 0.0
1 -9.39774079506108961e+00 0.0 0.0
1 -3.36980237583563920e+01 0.0 0.0
1 -7.29602376241941784e+01 0.0 0.0
1 2.67672393924873049e+01 0.0 0.0
8
Step 620
1 -4.51636580001427816e+01 0.0 0.0
1 1.52326067824446154e+00 0.0 0.0
1 -2.53090332234027571e+01 0.0 0.0
1 1.57022359609765676e+01 0.0 0.0
1 -9.04582626741654927e+00 0.0 0.0
1 -2.97659089346293015e+01 0.0 0.0
1 -7.72508787962713654e+01 0.0 0.0
1 2.74095086327145516e+01 0.0 0.0
8
Step 630
1 -5.54556775715101011e+01 0.0 0.0
1 -9.86408346525148416e-01 0.0 0.0
1 -3.23227846425467789e+01 0.0 0.0
1 9.11939883551499264e+00 0.0 0.0
1 -8.85112001614401223e+00 0.0 0.0
1 -2.57293752696618654e+01 0.0 0.0
1 -8.08735264806175280e+01 0.0 0.0
1 2.76585304343960452e+01 0.0 0.0
8
Step 640
1 -6.48258855105584075e+01 0.0 0.0
1 -3.62347375903819824e+00 0.0 0.0
1 -3.91660823039929511e+01 0.0 0.0
1 2.41673321097487248e+00 0.0 0.0
1 -8.82561236750882649e+00 0.0 0.0
1 -2.16868206739226608e+01 0.0 0.0
1 -8.37923414537213915e+01 0.0 0.0
1 2.75020653707669887e+01 0.0 0.0
8
Step 650
1 -7.32127618148234234e+01 0.0 0.0
1 -6.33935603352559429e+00 0.0 0.0
1 -4.57567713263882254e+01 0.0 0.0
1 -4.29306385188165329e+00 0.0 0.0
1 -8.97792250730787700e+00 0.0 0.0
1 -1.77341660092211519e+01 0.0 0.0
1 -8.59805423422216819e+01 0.0 0.0
1 2.69354682823424554e+01 0.0 0.0
8
Step 660
1 -8.05693406530831595e+01 0.0 0.0
1 -9.08529047626298691e+00 0.0 0.0
1 -5.20160511843467361e+01 0.0 0.0
1 -1.08990351958449239e+01 0.0 0.0
1 -9.31307536417244641e+00 0.0 0.0
1 -1.39635256433647346e+01 0.0 0.0
1 -8.74205776134438253e+01 0.0 0.0
1 2.59618627053401347e+01 0.0 0.0
8
Step 670
1 -8.68634007177972336e+01 0.0 0.0
1 -1.18129787415965701e+01 0.0 0.0
1 -5.78693795805789932e+01 0.0 0.0
1 -1.72935608010955271e+01 0.0 0.0
1 -9.83234145647664270e+00 0.0 0.0
1 -1.04619787110938027e+01 0.0 0.0
1 -8.81041639908056027e+01 0.0 0.0
1 2.45921756414182866e+01 0.0 0.0
8
Step 680
1 -9.20774305832371027e+01 0.0 0.0
1 -1.44752012900014453e+01 0.0 0.0
1 -6.32472889147031694e+01 0.0 0.0
1 -2.33738469550464494e+01 0.0 0.0
1 -1.05331399034534439e+01 0.0 0.0
1 -7.31045303331722263e+00 0.0 0.0
1 -8.80322037048218391e+01 0.0 0.0
1 2.28450386461533519e+01 0.0 0.0
8
Step 690
1 -9.62083890795175023e+01 0.0 0.0
1 -1.70263852650747829e+01 0.0 0.0
1 -6.80861145255799443e+01 0.0 0.0
1 -2.90432932186621215e+01 0.0 0.0
1 -1.14090039311460796e+01 0.0 0.0
1 -4.58272869047531550e+00 0.0 0.0
1 -8.72145943037379112e+01 0.0 0.0
1 2.07465629479939295e+01 0.0 0.0
8
Step 700
1 -9.92672823425738073e+01 0.0 0.0
1 -1.94231249349456618e+01 0.0 0.0
1 -7.23286368939673281e+01 0.0 0.0
1 -3.42127286308413119e+01 0.0 0.0
1 -1.24496077016680999e+01 0.0 0.0
1 -2.34456413488783166e+00 0.0 0.0
1 -8.56699446388326749e+01 0.0 0.0
1 1.83299970332350952e+01 0.0 0.0
8
Step 710
1 -1.01278578888990609e+02 0.0 0.0
1 -2.16246540609364750e+01 0.0 0.0
1 -7.59246418090451698e+01 0.0 0.0
1 -3.88015130047283208e+01 0.0 0.0
1 -1.36408530976170148e+01 0.0 0.0
1 -6.52944732716371767e-01 0.0 0.0
1 -8.34252093508154786e+01 0.0 0.0
1 1.56352750327730377e+01 0.0 0.0
8
Step 720
1 -1.02279482245456578e+02 0.0 0.0
1 -2.35932711715879933e+01 0.0 0.0
1 -7.88314031080135607e+01 0.0 0.0
1 -4.27385021733007662e+01 0.0 0.0
1 -1.49650151046718189e+01 0.0 0.0
1 4.44548142951604830e-01 0.0 0.0
1 -8.05152520543826711e+01 0.0 0.0
1 1.27084635918599087e+01 0.0 0.0
8
Step 730
1 -1.02319077885175048e+02 0.0 0.0
1 -2.52947196636988600e+01 0.0 0.0
1 -8.10140921020381342e+01 0.0 0.0
1 -4.59628775880880411e+01 0.0 0.0
1 -1.64009445367599973e+01 0.0 0.0
1 9.10249933847149584e-01 0.0 0.0
1 -7.69823448331017772e+01 0.0 0.0
1 9.60111400444028718e+00 0.0 0.0
8
Step 740
1 -1.01457368060555979e+02 0.0 0.0
1 -2.66985249301619589e+01 0.0 0.0
1 -8.24461164122202632e+01 0.0 0.0
1 -4.84248408860322002e+01 0.0 0.0
1 -1.79243269174550299e+01 0.0 0.0
1 7.16809674594701240e-01 0.0 0.0
1 -7.28756090031990738e+01 0.0 0.0
1 6.36952556001857850e+00 0.0 0.0
8
Step 750
1 -9.97642051080087526e+01 0.0 0.0
1 -2.77782903981330485e+01 0.0 0.0
1 -8.31093889306033162e+01 0.0 0.0
1 -5.00861731724259869e+01 0.0 0.0
1 -1.95079962552962840e+01 0.0 0.0
1 -1.52528404292460423e-01 0.0 0.0
1 -6.82503997354627785e+01 0.0 0.0
1 3.07392556190191346e+00 0.0 0.0
8
Step 760
1 -9.73181313890421080e+01 0.0 0.0
1 -2.85119535719150363e+01 0.0 0.0
1 -8.29945253046995788e+01 0.0 0.0
1 -5.09206571755052124e+01 0.0 0.0
1 -2.11223021368825137e+01 0.0 0.0
1 -1.70375917863846826e+00 0.0 0.0
1 -6.31676353327309741e+01 0.0 0.0
1 -2.22428450117961529e-01 0.0 0.0
8
Step 770
1 -9.42051325618631381e+01 0.0 0.0
1 -2.88820020697402136e+01 0.0 0.0
1 -8.21009660409905138e+01 0.0 0.0
1 -5.09143585190108965e+01 0.0 0.0
1 -2.27355279469259415e+01 0.0 0.0
1 -3.93206924423617776e+00 0.0 0.0
1 -5.76930709630443417e+01 0.0 0.0
1 -3.45421796299265749e+00 0.0 0.0
8
Step 780
1 -9.05173105584700863e+01 0.0 0.0
1 -2.88756483997478668e+01 0.0 0.0
1 -8.04370173416734247e+01 0.0 0.0
1 -5.00657605575001980e+01 0.0 0.0
1 -2.43143570825697708e+01 0.0 0.0
1 -6.82191165827527968e+00 0.0 0.0
1 -5.18965165748907253e+01 0.0 0.0
1 -6.55509640473497779e+00 0.0 0.0
8
Step 790
1 -8.63514835443149025e+01 0.0 0.0
1 -2.84849610211682851e+01 0.0 0.0
1 -7.80198034039864439e+01 0.0 0.0
1 -4.83857459286735860e+01 0.0 0.0
1 -2.58243827747704024e+01 0.0 0.0
1 -1.03472074608276454e+01 0.0 0.0
1 -4.58509996070881556e+01 0.0 0.0
1 -9.45877565384060048e+00 0.0 0.0
8
Step 800
1 -8.18077221925264837e+01 0.0 0.0
1 -2.77069482566581584e+01 0.0 0.0
1 -7.48751223432401929e+01 0.0 0.0
1 -4.58974175435252931e+01 0.0 0.0
1 -2.72306556194911522e+01 0.0 0.0
1 -1.44716786436614093e+01 0.0 0.0
1 -3.96318748927565920e+01 0.0 0.0
1 -1.21001533201178688e+01 0.0 0.0
8
Step 810
1 -7.69878346132710050e+01 0.0 0.0
1 -2.65435910122117349e+01 0.0 0.0
1 -7.10371982969641067e+01 0.0 0.0
1 -4.26357524140345845e+01 0.0 0.0
1 -2.84982612530459214e+01 0.0 0.0
1 -1.91493162678332141e+01 0.0 0.0
1 -3.33158866939022218e+01 0.0 0.0
1 -1.44164648943579010e+01 0.0 0.0
8
Step 820
1 -7.19938159289551010e+01 0.0 0.0
1 -2.50018201359797132e+01 0.0 0.0
1 -6.65483236870120294e+01 0.0 0.0
1 -3.86470836454774442e+01 0.0 0.0
1 -2.95929189096199998e+01 0.0 0.0
1 -2.43249854309653557e+01 0.0 0.0
1 -2.69801908582581831e+01 0.0 0.0
1 -1.63484417747926400e+01 0.0 0.0
8
Step 830
1 -6.69262823810783942e+01 0.0 0.0
1 -2.30934346707552578e+01 0.0 0.0
1 -6.14583880176044488e+01 0.0 0.0
1 -3.39884090932404135e+01 0.0 0.0
1 -3.04815900267667956e+01 0.0 0.0
1 -2.99351658133661580e+01 0.0 0.0
1 -2.07013483678220886e+01 0.0 0.0
1 -1.78414534136662191e+01 0.0 0.0
8
Step 840
1 -6.18829135527085157e+01 0.0 0.0
1 -2.08349582324539071e+01 0.0 0.0
1 -5.58242928260400859e+01 0.0 0.0
1 -2.87265294532871565e+01 0.0 0.0
1 -3.11330847740598848e+01 0.0 0.0
1 -3.59088227698111666e+01 0.0 0.0
1 -1.45543047171642463e+01 0.0 0.0
1 -1.88466097202734097e+01 0.0 0.0
8
Step 850
1 -5.69569293518262185e+01 0.0 0.0
1 -1.82474322227264381e+01 0.0 0.0
1 -4.97092562412992436e+01 0.0 0.0
1 -2.29370236358804185e+01 0.0 0.0
1 -3.15186535154582863e+01 0.0 0.0
1 -4.21683996642755119e+01 0.0 0.0
1 -8.61137228456441228e+00 0.0 0.0
1 -1.93217986967311113e+01 0.0 0.0
8
Step 860
1 -5.22356304376831488e+01 0.0 0.0
1 -1.53561464445761171e+01 0.0 0.0
1 -4.31820147335339612e+01 0.0 0.0
1 -1.67030747697270456e+01 0.0 0.0
1 -3.16125498897269992e+01 0.0 0.0
1 -4.86309177257806908e+01 0.0 0.0
1 -2.94123484062511720e+00 0.0 0.0
1 -1.92326342767797485e+01 0.0 0.0
8
Step 870
1 -4.77990314967115140e+01 0.0 0.0
1 -1.21903097763673127e+01 0.0 0.0
1 -3.63159337039167767e+01 0.0 0.0
1 -1.01141656391455488e+01 0.0 0.0
1 -3.13925524698944223e+01 0.0 0.0
1 -5.52091655260894640e+01 0.0 0.0
1 2.39200565194915749e+00 0.0 0.0
1 -1.85532905815560589e+01 0.0 0.0
8
Step 880
1 -4.37186160335063505e+01 0.0 0.0
1 -8.78266568517958923e+00 0.0 0.0
1 -2.91880422187298301e+01 0.0 0.0
1 -3.26466730025113083e+00 0.0 0.0
1 -3.08404328485211252e+01 0.0 0.0
1 -6.18129566220497608e+01 0.0 0.0
1 7.32971988719619372e+00 0.0 0.0
1 -1.72672012677603561e+01 0.0 0.0
8
Step 890
1 -4.00562391366771493e+01 0.0 0.0
1 -5.16905933321585032e+00 0.0 0.0
1 -2.18780101246571377e+01 0.0 0.0
1 3.74765136945683830e+00 0.0 0.0
1 -2.99423594363619152e+01 0.0 0.0
1 -6.83504312843530357e+01 0.0 0.0
1 1.18195608636827370e+01 0.0 0.0
1 -1.53676061659893346e+01 0.0 0.0
8
Step 900
1 -3.68632011606215642e+01 0.0 0.0
1 -1.38796467732337447e+00 0.0 0.0
1 -1.44670877631757584e+01 0.0 0.0
1 1.08231626847631119e+01 0.0 0.0
1 -2.86892281496380939e+01 0.0 0.0
1 -7.47293767682516545e+01 0.0 0.0
1 1.58161757075115883e+01 0.0 0.0
1 -1.28579317280627166e+01 0.0 0.0
8
Step 910
1 -3.41795107115129682e+01 0.0 0.0
1 2.52001885300917117e+00 0.0 0.0
1 -7.03702940445741199e+00 0.0 0.0
1 1.78619359254079271e+01 0.0 0.0
1 -2.70769133475921748e+01 0.0 0.0
1 -8.08585403640068705e+01 0.0 0.0
1 1.92818060857346971e+01 0.0 0.0
1 -9.75199658954361936e+00 0.0 0.0
8
Step 920
1 -3.20333501045989735e+01 0.0 0.0
1 6.51268987051960124e+00 0.0 0.0
1 3.30978665323318766e-01 0.0 0.0
1 2.47652782463626338e+01 0.0 0.0
1 -2.51064346991859466e+01 0.0 0.0
1 -8.66489104582394418e+01 0.0 0.0
1 2.21867672027467684e+01 0.0 0.0
1 -6.07403844876764509e+00 0.0 0.0
8
Step 930
1 -3.04407509716242402e+01 0.0 0.0
1 1.05467784285910664e+01 0.0 0.0
1 7.55736564525858689e+00 0.0 0.0
1 3.14372306589966612e+01 0.0 0.0
1 -2.27840379394727819e+01 0.0 0.0
1 -9.20149428859087095e+01 0.0 0.0
1 2.45097991791993586e+01 0.0 0.0
1 -1.85856312758473941e+00 0.0 0.0
8
Step 940
1 -2.94054823266547309e+01 0.0 0.0
1 1.45784794382469158e+01 0.0 0.0
1 1.45651815271467804e+01 0.0 0.0
1 3.77859917089593793e+01 0.0 0.0
1 -2.01211895783453301e+01 0.0 0.0
1 -9.68757127096876616e+01 0.0 0.0
1 2.62382883461307834e+01 0.0 0.0
1 2.84997916769052573e+00 0.0 0.0
8
Step 950
1 -2.89191484688167080e+01 0.0 0.0
1 1.85639771219622887e+01 0.0 0.0
1 2.12810449535997925e+01 0.0 0.0
1 4.37252449914441428e+01 0.0 0.0
1 -1.71344874410500765e+01 0.0 0.0
1 -1.01155974930286902e+02 0.0 0.0
1 2.73683593844605220e+01 0.0 0.0
1 7.99768191551686591e+00 0.0 0.0
8
Step 960
1 -2.89614898409422281e+01 0.0 0.0
1 2.24599527254081295e+01 0.0 0.0
1 2.76360211786555183e+01 0.0 0.0
1 4.91753706322405932e+01 0.0 0.0
1 -1.38454903919366643e+01 0.0 0.0
1 -1.04787121199047547e+02 0.0 0.0
1 2.79048421081480740e+01 0.0 0.0
1 1.35218235509474418e+01 0.0 0.0
8
Step 970
1 -2.95008764951804565e+01 0.0 0.0
1 2.62240690964606920e+01 0.0 0.0
1 3.35664205126872872e+01 0.0 0.0
1 5.40645249870328541e+01 0.0 0.0
1 -1.02804717092392366e+01 0.0 0.0
1 -1.07708023092764023e+02 0.0 0.0
1 2.78611189172945437e+01 0.0 0.0
1 1.93516489407291807e+01 0.0 0.0
8
Step 980
1 -3.04949811564102724e+01 0.0 0.0
1 2.98154271825555064e+01 0.0 0.0
1 3.90145102705199278e+01 0.0 0.0
1 5.83295767865884187e+01 0.0 0.0
1 -6.47010137020383347e+00 0.0 0.0
1 -1.09865755698450499e+02 0.0 0.0
1 2.72588605084746298e+01 0.0 0.0
1 2.54092768889056693e+01 0.0 0.0
8
Step 990
1 -3.18916169502774771e+01 0.0 0.0
1 3.31949908780865286e+01 0.0 0.0
1 4.39291355324034214e+01 0.0 0.0
1 6.19168915736475967e+01 0.0 0.0
1 -2.44906303429500927e+00 0.0 0.0
1 -1.11216197996531562e+02 0.0 0.0
1 2.61276583706543839e+01 0.0 0.0
1 3.16107188812583573e+01 0.0 0.0
8
Step 1000
1 -3.36297235432486801e+01 0.0 0.0
1 3.63259778855645621e+01 0.0 0.0
1 4.82662458884260772e+01 0.0 0.0
1 6.47829594179385992e+01 0.0 0.0
1 1.74438814418684096e+00 0.0 0.0
1 -1.11724508758338985e+02 0.0 0.0
1 2.45045630183590326e+01 0.0 0.0
1 3.78669940429970211e+01 0.0 0.0
8
Step 1010
1 -3.56404845669972374e+01 0.0 0.0
1 3.91742152820205192e+01 0.0 0.0
1 5.19893267520540974e+01 0.0 0.0
1 6.68948635222823782e+01 0.0 0.0
1 6.06892050368627611e+00 0.0 0.0
1 -1.11365478393370125e+02 0.0 0.0
1 2.24335369535908633e+01 0.0 0.0
1 4.40853252679608048e+01 0.0 0.0
8
Step 1020
1 -3.78485586098670623e+01 0.0 0.0
1 4.17084592814880679e+01 0.0 0.0
1 5.50697348376488662e+01 0.0 0.0
1 6.82305894777085200e+01 0.0 0.0
1 1.04806670885628694e+01 0.0 0.0
1 -1.10123758454325383e+02 0.0 0.0
1 1.99648311473931130e+01 0.0 0.0
1 5.01704015373501235e+01 0.0 0.0
8
Step 1030
1 -4.01734056205213292e+01 0.0 0.0
1 4.39006792581076866e+01 0.0 0.0
1 5.74869380785800388e+01 0.0 0.0
1 6.87791766683275512e+01 0.0 0.0
1 1.49338062936876081e+01 0.0 0.0
1 -1.07993971428087889e+02 0.0 0.0
1 1.71542935225056077e+01 0.0 0.0
1 5.60256914798727337e+01 0.0 0.0
8
Step 1040
1 -4.25306901898196443e+01 0.0 0.0