8
Step 0
1 -1.76147531624107501e+01 0.0 0.0
1 -1.25112100976851877e+02 0.0 0.0
1 4.14271519083399085e+01 0.0 0.0
1 -1.55868354132052218e+01 0.0 0.0
1 -3.05606336082378220e+01 0.0 0.0
1 -1.43487928636882884e+01 0.0 0.0
1 4.53627400512804115e+01 0.0 0.0
1 6.41018743217516942e+01 0.0 0.0
8
Step 10
1 -7.09304088439714242e+00 0.0 0.0
1 -1.22439764625403527e+02 0.0 0.0
1 4.60370609641957529e+01 0.0 0.0
1 -1.65110343522439251e+01 0.0 0.0
1 -3.74633000315035929e+01 0.0 0.0
1 -1.14016123054038871e+01 0.0 0.0
1 4.83066324387447565e+01 0.0 0.0
1 6.12269450665296873e+01 0.0 0.0
8
Step 20
1 3.77612965398236344e+00 0.0 0.0
1 -1.18630784545026316e+02 0.0 0.0
1 5.08222299700361120e+01 0.0 0.0
1 -1.70645252325867105e+01 0.0 0.0
1 -4.36145385755347732e+01 0.0 0.0
1 -8.18102947513043510e+00 0.0 0.0
1 5.14396259932920259e+01 0.0 0.0
1 5.70420769218653376e+01 0.0 0.0
8
Step 30
1 1.48471679559263023e+01 0.0 0.0
1 -1.13738854168489866e+02 0.0 0.0
1 5.57108371290433197e+01 0.0 0.0
1 -1.72420082845745810e+01 0.0 0.0
1 -4.89643693293127455e+01 0.0 0.0
1 -4.67450420580322135e+00 0.0 0.0
1 5.46987087236348444e+01 0.0 0.0
1 5.15988687620054023e+01 0.0 0.0
8
Step 40
1 2.59698915621349897e+01 0.0 0.0
1 -1.07828267727861459e+02 0.0 0.0
1 6.06246009079223356e+01 0.0 0.0
1 -1.70451455623200658e+01 0.0 0.0
1 -5.34719184960601552e+01 0.0 0.0
1 -8.72062622758933537e-01 0.0 0.0
1 5.80156048692774391e+01 0.0 0.0
1 4.49692596614200966e+01 0.0 0.0
8
Step 50
1 3.69919777401741570e+01 0.0 0.0
1 -1.00973129929291474e+02 0.0 0.0
1 6.54799311685137440e+01 0.0 0.0
1 -1.64825487718706860e+01 0.0 0.0
1 -5.71060088724787747e+01 0.0 0.0
1 3.23316972960942595e+00 0.0 0.0
1 6.13180011658545538e+01 0.0 0.0
1 3.72445793805660017e+01 0.0 0.0
8
Step 60
1 4.77615275731679390e+01 0.0 0.0
1 -9.32564292111041482e+01 0.0 0.0
1 7.01892378069740488e+01 0.0 0.0
1 -1.55696347914366502e+01 0.0 0.0
1 -5.98456683772300835e+01 0.0 0.0
1 7.64445304876217246e+00 0.0 0.0
1 6.45308738542432394e+01 0.0 0.0
1 2.85342570685543464e+01 0.0 0.0
8
Step 70
1 5.81296960735669970e+01 0.0 0.0
1 -8.47689739764233394e+01 0.0 0.0
1 7.46623782238982869e+01 0.0 0.0
1 -1.43283436571170544e+01 0.0 0.0
1 -6.16805312433839532e+01 0.0 0.0
1 1.23609542977401983e+01 0.0 0.0
1 6.75778949587127187e+01 0.0 0.0
1 1.89641853213463314e+01 0.0 0.0
8
Step 80
1 6.79533309295239007e+01 0.0 0.0
1 -7.56082001603089395e+01 0.0 0.0
1 7.88082167601393024e+01 0.0 0.0
1 -1.27867184888036469e+01 0.0 0.0
1 -6.26111069484111979e+01 0.0 0.0
1 1.73773218905633868e+01 0.0 0.0
1 7.03828905223378172e+01 0.0 0.0
1 8.67475076952204027e+00 0.0 0.0
8
Step 90
1 7.70975542811333838e+01 0.0 0.0
1 -6.58768681678752870e+01 0.0 0.0
1 8.25362618800545960e+01 0.0 0.0
1 -1.09783524721076802e+01 0.0 0.0
1 -6.26488951400831979e+01 0.0 0.0
1 2.26833308068135580e+01 0.0 0.0
1 7.28713186058394911e+01 0.0 0.0
1 -2.18144161463690267e+00 0.0 0.0
8
Step 100
1 8.54382178540911355e+01 0.0 0.0
1 -5.56816763441139813e+01 0.0 0.0
1 8.57583413093888112e+01 0.0 0.0
1 -8.94171401018535761e+00 0.0 0.0
1 -6.18163304443656969e+01 0.0 0.0
1 2.82636126310517213e+01 0.0 0.0
1 7.49717316715777429e+01 0.0 0.0
1 -1.34421071509915979e+01 0.0 0.0
8
Step 110
1 9.28641626483733518e+01 0.0 0.0
1 -4.51318254865400448e+01 0.0 0.0
1 8.83902722757860175e+01 0.0 0.0
1 -6.71936684265694950e+00 0.0 0.0
1 -6.01465484964906381e+01 0.0 0.0
1 3.40974816871538451e+01 0.0 0.0
1 7.66171870149807717e+01 0.0 0.0
1 -2.49380253486547723e+01 0.0 0.0
8
Step 120
1 9.92792203119471850e+01 0.0 0.0
1 -3.43375734917458075e+01 0.0 0.0
1 9.03534838575455126e+01 0.0 0.0
1 -4.35710664454083041e+00 0.0 0.0
1 -5.76829729525342003e+01 0.0 0.0
1 4.01588643986088982e+01 0.0 0.0
1 7.77465703895987872e+01 0.0 0.0
1 -3.64959206049650646e+01 0.0 0.0
8
Step 130
1 1.04603903741360440e+02 0.0 0.0
1 -2.34088204234815684e+01 0.0 0.0
1 9.15765512147336125e+01 0.0 0.0
1 -1.90303883991166822e+00 0.0 0.0
1 -5.44787316265210961e+01 0.0 0.0
1 4.64163346979164615e+01 0.0 0.0
1 7.83058017679236542e+01 0.0 0.0
1 -4.79414052726469535e+01 0.0 0.0
8
Step 140
1 1.08776748149006522e+02 0.0 0.0
1 -1.24537619690570569e+01 0.0 0.0
1 9.19966067425750538e+01 0.0 0.0
1 5.93376220258300169e-01 0.0 0.0
1 -5.05959172961205113e+01 0.0 0.0
1 5.28332542103093914e+01 0.0 0.0
1 7.82488978288716766e+01 0.0 0.0
1 -5.91019100736704104e+01 0.0 0.0
8
Step 150
1 1.11755279219594485e+02 0.0 0.0
1 -1.57764376878675328e+00 0.0 0.0
1 9.15606002012018507e+01 0.0 0.0
1 3.08228501128872479e+00 0.0 0.0
1 -4.61047143424862682e+01 0.0 0.0
1 5.93680124843566119e+01 0.0 0.0
1 7.75388725570809356e+01 0.0 0.0
1 -6.98095314457926008e+01 0.0 0.0
8
Step 160
1 1.13516600305955109e+02 0.0 0.0
1 9.11835876817002777e+00 0.0 0.0
1 9.02263876840008265e+01 0.0 0.0
1 5.51438591104498421e+00 0.0 0.0
1 -4.10824157406464820e+01 0.0 0.0
1 6.59743600556589058e+01 0.0 0.0
1 7.61484644455313457e+01 0.0 0.0
1 -7.99037343170308816e+01 0.0 0.0
8
Step 170
1 1.14057604290626131e+02 0.0 0.0
1 1.95381197615303535e+01 0.0 0.0
1 8.79636368911390178e+01 0.0 0.0
1 7.84183732077486617e+00 0.0 0.0
1 -3.56123558512544847e+01 0.0 0.0
1 7.26018257668685010e+01 0.0 0.0
1 7.40606853919651655e+01 0.0 0.0
1 -8.92338605947162904e+01 0.0 0.0
8
Step 180
1 1.13394826553192019e+02 0.0 0.0
1 2.95913952786371901e+01 0.0 0.0
1 8.47545426960759301e+01 0.0 0.0
1 1.00191125639763019e+01 0.0 0.0
1 -2.97827831886315479e+01 0.0 0.0
1 7.91962094999913688e+01 0.0 0.0
1 7.12691917966409818e+01 0.0 0.0
1 -9.76614066408332349e+01 0.0 0.0
8
Step 190
1 1.11563962764822222e+02 0.0 0.0
1 3.91945114099317209e+01 0.0 0.0
1 8.05943518028993537e+01 0.0 0.0
1 1.20037894072878029e+01 0.0 0.0
1 -2.36856943536267437e+01 0.0 0.0
1 8.57001421040840370e+01 0.0 0.0
1 6.77784821728199063e+01 0.0 0.0
1 -1.05062045509233130e+02 0.0 0.0
8
Step 200
1 1.08619078907304825e+02 0.0 0.0
1 4.82709173302407706e+01 0.0 0.0
1 7.54916980961548489e+01 0.0 0.0
1 1.37572657328047026e+01 0.0 0.0
1 -1.74156463173843647e+01 0.0 0.0
1 9.20537054871612810e+01 0.0 0.0
1 6.36039276341435169e+01 0.0 0.0
1 -1.11327380335986533e+02 0.0 0.0
8
Step 210
1 1.04631541458075361e+02 0.0 0.0
1 5.67516171888985497e+01 0.0 0.0
1 6.94687511423607589e+01 0.0 0.0
1 1.52453957625782994e+01 0.0 0.0
1 -1.10685599938452395e+01 0.0 0.0
1 9.81951071737200891e+01 0.0 0.0
1 5.87716420780581643e+01 0.0 0.0
1 -1.16366423047657236e+02 0.0 0.0
8
Step 220
1 9.96886939876114440e+01 0.0 0.0
1 6.45754967080738425e+01 0.0 0.0
1 6.25611795925944776e+01 0.0 0.0
1 1.64390430854011242e+01 0.0 0.0
1 -4.74052427295699275e+00 0.0 0.0
1 1.04061404689125041e+02 0.0 0.0
1 5.33181981386093753e+01 0.0 0.0
1 -1.20106797078211045e+02 0.0 0.0
8
Step 230
1 9.38923036129071136e+01 0.0 0.0
1 7.16895600594520204e+01 0.0 0.0
1 5.48179295755735367e+01 0.0 0.0
1 1.73145475505946109e+01 0.0 0.0
1 1.47339300985922739e+00 0.0 0.0
1 1.09589275557703019e+02 0.0 0.0
1 4.72901935962673079e+01 0.0 0.0
1 -1.22495664211248226e+02 0.0 0.0
8
Step 240
1 8.73567980163882112e+01 0.0 0.0
1 7.80490903407374788e+01 0.0 0.0
1 4.63008163082545465e+01 0.0 0.0
1 1.78541030401220944e+01 0.0 0.0
1 7.48032194395900163e+00 0.0 0.0
1 1.14715828244753951e+02 0.0 0.0
1 4.07436715364274562e+01 0.0 0.0
1 -1.23500374618623283e+02 0.0 0.0
8
Step 250
1 8.02073121103328077e+01 0.0 0.0
1 8.36177433843283495e+01 0.0 0.0
1 3.70839258495557047e+01 0.0 0.0
1 1.80460425147603125e+01 0.0 0.0
1 1.31907497090504560e+01 0.0 0.0
1 1.19379447937448788e+02 0.0 0.0
1 3.37433967425849417e+01 0.0 0.0
1 -1.23108836630200059e+02 0.0 0.0
8
Step 260
1 7.25775636512209275e+01 0.0 0.0
1 8.83675803997673910e+01 0.0 0.0
1 2.72528238541904528e+01 0.0 0.0
1 1.78850259398881839e+01 0.0 0.0
1 1.85196547247268803e+01 0.0 0.0
1 1.23520668718361549e+02 0.0 0.0
1 2.63619910791288916e+01 0.0 0.0
1 -1.21329599913086980e+02 0.0 0.0
8
Step 270
1 6.46075795463866882e+01 0.0 0.0
1 9.22790407847243586e+01 0.0 0.0
1 1.69035698353937320e+01 0.0 0.0
1 1.73721261359048889e+01 0.0 0.0
1 2.33876056098393938e+01 0.0 0.0
1 1.27083060674582839e+02 0.0 0.0
1 1.86789322600852685e+01 0.0 0.0
1 -1.18191643743499895e+02 0.0 0.0
8
Step 280
1 5.64412991743856551e+01 0.0 0.0
1 9.53408529663225579e+01 0.0 0.0
1 6.14153904688570762e+00 0.0 0.0
1 1.65148076243337307e+01 0.0 0.0
1 2.77218113426995529e+01 0.0 0.0
1 1.30014117177662570e+02 0.0 0.0
1 1.07794234799813200e+01 0.0 0.0
1 -1.13743861935834147e+02 0.0 0.0
8
Step 290
1 4.82240872719333709e+01 0.0 0.0
1 9.75498788452687506e+01 0.0 0.0
1 -4.91994043094467859e+00 0.0 0.0
1 1.53267944086629413e+01 0.0 0.0
1 3.14571056291745421e+01 0.0 0.0
1 1.32266124426146803e+02 0.0 0.0
1 2.75314572002184699e+00 0.0 0.0
1 -1.08054238447985469e+02 0.0 0.0
8
Step 300
1 4.01001959936975680e+01 0.0 0.0
1 9.89108866135577642e+01 0.0 0.0
1 -1.61611208602357621e+01 0.0 0.0
1 1.38278244540490149e+01 0.0 0.0
1 3.45368457887117231e+01 0.0 0.0
1 1.33796992849372060e+02 0.0 0.0
1 -5.30709027351671025e+00 0.0 0.0
1 -1.01208712978157607e+02 0.0 0.0
8
Step 310
1 3.22102225795624832e+01 0.0 0.0
1 9.94362474954745181e+01 0.0 0.0
1 -2.74575159637390520e+01 0.0 0.0
1 1.20432913685026985e+01 0.0 0.0
1 3.69137050161774383e+01 0.0 0.0
1 1.34571028568615475e+02 0.0 0.0
1 -1.33067698987570893e+01 0.0 0.0
1 -9.33097437998446253e+01 0.0 0.0
8
Step 320
1 2.46886145644557473e+01 0.0 0.0
1 9.91455541988710678e+01 0.0 0.0
1 -3.86816999712239777e+01 0.0 0.0
1 1.00037772418963335e+01 0.0 0.0
1 3.85503370666409282e+01 0.0 0.0
1 1.34559623125356836e+02 0.0 0.0
1 -2.11511510356863930e+01 0.0 0.0
1 -8.44745849894564316e+01 0.0 0.0
8
Step 330
1 1.76612776546911192e+01 0.0 0.0
1 9.80651622411158002e+01 0.0 0.0
1 -4.97051878436274990e+01 0.0 0.0
1 7.74448444293179961e+00 0.0 0.0
1 3.94198944124846022e+01 0.0 0.0
1 1.33741841272421368e+02 0.0 0.0
1 -2.87467594305581819e+01 0.0 0.0
1 -7.48333060671185848e+01 0.0 0.0
8
Step 340
1 1.12433415684761773e+01 0.0 0.0
1 9.62276593616502538e+01 0.0 0.0
1 -6.04003550363407484e+01 0.0 0.0
1 5.30457800423758563e+00 0.0 0.0
1 3.95063846525711142e+01 0.0 0.0
1 1.32104889736259537e+02 0.0 0.0
1 -3.60028694868315498e+01 0.0 0.0
1 -6.45265926715830318e+01 0.0 0.0
8
Step 350
1 5.53713599271478074e+00 0.0 0.0
1 9.36712723938930338e+01 0.0 0.0
1 -7.06423527605265775e+01 0.0 0.0
1 2.72645362172783035e+00 0.0 0.0
1 3.88048550784860353e+01 0.0 0.0
1 1.29644454246120318e+02 0.0 0.0
1 -4.28329365829017519e+01 0.0 0.0
1 -5.37033759858188802e+01 0.0 0.0
8
Step 360
1 6.30422493309655829e-01 0.0 0.0
1 9.04392246782458358e+01 0.0 0.0
1 -8.03109751037791426e+01 0.0 0.0
1 5.49488858944110481e-02 0.0 0.0
1 3.73214012908607202e+01 0.0 0.0
1 1.26364897359555613e+02 0.0 0.0
1 -4.91559489094410083e+01 0.0 0.0
1 -4.25183451625737874e+01 0.0 0.0
8
Step 370
1 -3.40508068714931289e+00 0.0 0.0
1 8.65790598625528389e+01 0.0 0.0
1 -8.92924375180034815e+01 0.0 0.0
1 -2.66348311171335261e+00 0.0 0.0
1 3.50730019608981110e+01 0.0 0.0
1 1.22279315145711649e+02 0.0 0.0
1 -5.48976706114245587e+01 0.0 0.0
1 -3.11294002580941225e+01 0.0 0.0
8
Step 380
1 -6.51485458671550433e+00 0.0 0.0
1 8.21419494056911645e+01 0.0 0.0
1 -9.74810316429228862e+01 0.0 0.0
1 -5.38161830597775737e+00 0.0 0.0
1 3.20871875852517476e+01 0.0 0.0
1 1.17409456032383616e+02 0.0 0.0
1 -5.99917532853802697e+01 0.0 0.0
1 -1.96951029094106715e+01 0.0 0.0
8
Step 390
1 -8.66240103098417968e+00 0.0 0.0
1 7.71820011104841655e+01 0.0 0.0
1 -1.04780628483079241e+02 0.0 0.0
1 -8.05230560704590559e+00 0.0 0.0
1 2.84015558105727628e+01 0.0 0.0
1 1.11785509545901121e+02 0.0 0.0
1 -6.43806989927769706e+01 0.0 0.0
1 -8.37217840828946258e+00 0.0 0.0
8
Step 400
1 -9.82972511228249779e+00 0.0 0.0
1 7.17555846012260048e+01 0.0 0.0
1 -1.11106009695906337e+02 0.0 0.0
1 -1.06292932596757179e+01 0.0 0.0
1 2.40631492036887451e+01 0.0 0.0
1 1.05445775874006102e+02 0.0 0.0
1 -6.80166641970917425e+01 0.0 0.0
1 2.68688341919906382e+00 0.0 0.0
8
Step 410
1 -1.00174832365632085e+01 0.0 0.0
1 6.59206870480044387e+01 0.0 0.0
1 -1.16384014249118039e+02 0.0 0.0
1 -1.30680229159530228e+01 0.0 0.0
1 1.91277130365787009e+01 0.0 0.0
1 9.84362289509211763e+01 0.0 0.0
1 -7.08620997374418948e+01 0.0 0.0
1 1.33360890739018405e+01 0.0 0.0
8
Step 420
1 -9.24480842038924777e+00 0.0 0.0
1 5.97363089813112751e+01 0.0 0.0
1 -1.20554494146927979e+02 0.0 0.0
1 -1.53263792873997282e+01 0.0 0.0
1 1.36588508050958186e+01 0.0 0.0
1 9.08099861044591989e+01 0.0 0.0
1 -7.28902265709902650e+01 0.0 0.0
1 2.34380331104085791e+01 0.0 0.0
8
Step 430
1 -7.54882926839829160e+00 0.0 0.0
1 5.32619061720251352e+01 0.0 0.0
1 -1.23571077710454730e+02 0.0 0.0
1 -1.73653857053611880e+01 0.0 0.0
1 7.72709408737035019e+00 0.0 0.0
1 8.26266964225396237e+01 0.0 0.0
1 -7.40853502126238084e+01 0.0 0.0
1 3.28657980063354529e+01 0.0 0.0
8
Step 440
1 -4.98390160592391940e+00 0.0 0.0
1 4.65568797280324418e+01 0.0 0.0
1 -1.25401741731951105e+02 0.0 0.0
1 -1.91498379977752720e+01 0.0 0.0
1 1.40890141438620975e+00 0.0 0.0
1 7.39518582564688245e+01 0.0 0.0
1 -7.44430184819775178e+01 0.0 0.0
1 4.15046463214336327e+01 0.0 0.0
8
Step 450
1 -1.62057255577320869e+00 0.0 0.0
1 3.96801131955584623e+01 0.0 0.0
1 -1.26029194736486446e+02 0.0 0.0
1 -2.06488706045655377e+01 0.0 0.0
1 -5.21440140117547379e+00 0.0 0.0
1 6.48560741469117232e+01 0.0 0.0
1 -7.39700274857246143e+01 0.0 0.0
1 4.92534943323918739e+01 0.0 0.0
8
Step 460
1 2.45570335666641304e+00 0.0 0.0
1 3.26895528811861311e+01 0.0 0.0
1 -1.25451072915531256e+02 0.0 0.0
1 -2.18364497407139773e+01 0.0 0.0
1 -1.20577290223356695e+01 0.0 0.0
1 5.54142494337560549e+01 0.0 0.0
1 -7.26842800725930971e+01 0.0 0.0
1 5.60261593444685388e+01 0.0 0.0
8
Step 470
1 7.14607689639287891e+00 0.0 0.0
1 2.56418260414354613e+01 0.0 0.0
1 -1.23679948623873841e+02 0.0 0.0
1 -2.26917887343514693e+01 0.0 0.0
1 -1.90333832788390964e+01 0.0 0.0
1 4.57047393538881863e+01 0.0 0.0
1 -7.06144997952896034e+01 0.0 0.0
1 6.17523740408034527e+01 0.0 0.0
8
Step 480
1 1.23400262802232543e+01 0.0 0.0
1 1.85918910984037069e+01 0.0 0.0
1 -1.20743149382009435e+02 0.0 0.0
1 -2.31996805838040601e+01 0.0 0.0
1 -2.60522299423912607e+01 0.0 0.0
1 3.58084489016852885e+01 0.0 0.0
1 -6.77998022536792178e+01 0.0 0.0
1 6.63785610126544583e+01 0.0 0.0
8
Step 490
1 1.79172681534736427e+01 0.0 0.0
1 1.15927145771913338e+01 0.0 0.0
1 -1.16682383866075497e+02 0.0 0.0
1 -2.33507425390900707e+01 0.0 0.0
1 -3.30248959107104980e+01 0.0 0.0
1 2.58078903358087715e+01 0.0 0.0
1 -6.42891251105677100e+01 0.0 0.0
1 6.98683597204407363e+01 0.0 0.0
8
Step 500
1 2.37498339076516167e+01 0.0 0.0
1 4.69497085061763286e+00 0.0 0.0
1 -1.11553171087002923e+02 0.0 0.0
1 -2.31415674054380247e+01 0.0 0.0
1 -3.98629752406860476e+01 0.0 0.0
1 1.57862049912887095e+01 0.0 0.0
1 -6.01405184972066138e+01 0.0 0.0
1 7.22028973768453142e+01 0.0 0.0
8
Step 510
1 2.97042835465303483e+01 0.0 0.0
1 -2.05323724643837924e+00 0.0 0.0
1 -1.05424070372506151e+02 0.0 0.0
1 -2.25747765659893425e+01 0.0 0.0
1 -4.64802297918745850e+01 0.0 0.0
1 5.82615883668822043e+00 0.0 0.0
1 -5.54202992256441149e+01 0.0 0.0
1 7.33807954112302525e+01 0.0 0.0
8
Step 520
1 3.56440238322513281e+01 0.0 0.0
1 -8.60663663122366174e+00 0.0 0.0
1 -9.83757131242191463e+01 0.0 0.0
1 -2.16589706494280243e+01 0.0 0.0
1 -5.27937671907349539e+01 0.0 0.0
1 -3.99087533322128074e+00 0.0 0.0
1 -5.02020752539777746e+01 0.0 0.0
1 7.34179049173130949e+01 0.0 0.0
8
Step 530
1 4.14316914494135702e+01 0.0 0.0
1 -1.49230185558896249e+01 0.0 0.0
1 -9.04996425755176972e+01 0.0 0.0
1 -2.04085754519854810e+01 0.0 0.0
1 -5.87251759295912095e+01 0.0 0.0
1 -1.35859325292001358e+01 0.0 0.0
1 -4.45656510350062760e+01 0.0 0.0
1 7.23467682003411028e+01 0.0 0.0
8
Step 540
1 4.69315562629612657e+01 0.0 0.0
1 -2.09634453451822544e+01 0.0 0.0
1 -8.18969745563152003e+01 0.0 0.0
1 -1.88435831661071802e+01 0.0 0.0
1 -6.42015952279295874e+01 0.0 0.0
1 -2.28834471813260940e+01 0.0 0.0
1 -3.85958293309051967e+01 0.0 0.0
1 7.02158092971707504e+01 0.0 0.0
8
Step 550
1 5.20118953465976190e+01 0.0 0.0
1 -2.66924239895357331e+01 0.0 0.0
1 -7.26768999330835470e+01 0.0 0.0
1 -1.69891920427572849e+01 0.0 0.0
1 -6.91566963092597007e+01 0.0 0.0
1 -3.18121994846048004e+01 0.0 0.0
1 -3.23811302401713377e+01 0.0 0.0
1 6.70882638597346812e+01 0.0 0.0
8
Step 560
1 5.65472861855767448e+01 0.0 0.0
1 -3.20780410492925370e+01 0.0 0.0
1 -6.29550570887894878e+01 0.0 0.0
1 -1.48753510737299059e+01 0.0 0.0
1 -7.35315523519051197e+01 0.0 0.0
1 -4.03061931799993758e+01 0.0 0.0
1 -2.60124529086781635e+01 0.0 0.0
1 6.30408674573256462e+01 0.0 0.0
8
Step 570
1 6.04207679562954283e+01 0.0 0.0
1 -3.70920539839266041e+01 0.0 0.0
1 -5.28518096063579321e+01 0.0 0.0
1 -1.25362197892622405e+01 0.0 0.0
1 -7.72753767241111120e+01 0.0 0.0
1 -4.83054421027248608e+01 0.0 0.0
1 -1.95817090367159494e+01 0.0 0.0
1 5.81623303044719862e+01 0.0 0.0
8
Step 580
1 6.35258233599675535e+01 0.0 0.0
1 -4.17099355239102962e+01 0.0 0.0
1 -4.24904693406484597e+01 0.0 0.0
1 -1.00095564498471514e+01 0.0 0.0
1 -8.03461131421420305e+01 0.0 0.0
1 -5.57566452351037327e+01 0.0 0.0
1 -1.31804593043462983e+01 0.0 0.0
1 5.25516346727433827e+01 0.0 0.0
8
Step 590
1 6.57681400322011029e+01 0.0 0.0
1 -4.59108698827596271e+01 0.0 0.0
1 -3.19955076175970916e+01 0.0 0.0
1 -7.33605041221622933e+00 0.0 0.0
1 -8.27108667848987551e+01 0.0 0.0
1 -6.26137340514951788e+01 0.0 0.0
1 -6.89858386828450421e+00 0.0 0.0
1 4.63161978369930196e+01 0.0 0.0
8
Step 600
1 6.70671195434844236e+01 0.0 0.0
1 -4.96777022035356381e+01 0.0 0.0
1 -2.14907969986321845e+01 0.0 0.0
1 -4.55861598522588274e+00 0.0 0.0
1 -8.43461716499162861e+01 0.0 0.0
1 -6.88382812820920122e+01 0.0 0.0
1 -8.23016041065349091e-01 0.0 0.0
1 3.95699475585697158e+01 0.0 0.0
8
Step 610
1 6.73571125812915881e+01 0.0 0.0
1 -5.29968453341461014e+01 0.0 0.0
1 -1.10979228779492978e+01 0.0 0.0
1 -1.72166549958386472e+00 0.0 0.0
1 -8.52380959064273327e+01 0.0 0.0
1 -7.43997663206476432e+01 0.0 0.0
1 4.96343566918920232e+00 0.0 0.0
1 3.24313583437673856e+01 0.0 0.0
8
Step 620
1 6.65883699823674391e+01 0.0 0.0
1 -5.58581505050507374e+01 0.0 0.0
1 -9.34598500565567036e-01 0.0 0.0
1 1.12962141889274381e+00 0.0 0.0
1 -8.53821930236817650e+01 0.0 0.0
1 -7.92756987321027822e+01 0.0 0.0
1 1.03831573676847313e+01 0.0 0.0
1 2.50214949388589041e+01 0.0 0.0
8
Step 630
1 6.47277097374525852e+01 0.0 0.0
1 -5.82547504512071441e+01 0.0 0.0
1 8.88679051962940747e+00 0.0 0.0
1 3.95001712493746426e+00 0.0 0.0
1 -8.47833114292947272e+01 0.0 0.0
1 -8.34516070502583176e+01 0.0 0.0
1 1.53646778644259854e+01 0.0 0.0
1 1.74621050270274729e+01 0.0 0.0
8
Step 640
1 6.17589089214473788e+01 0.0 0.0
1 -6.01828847587103297e+01 0.0 0.0
1 1.82604945503665448e+01 0.0 0.0
1 6.69494102001421876e+00 0.0 0.0
1 -8.34552789428980475e+01 0.0 0.0
1 -8.69209047517850593e+01 0.0 0.0
1 1.98434878395692529e+01 0.0 0.0
1 9.87379650469803849e+00 0.0 0.0
8
Step 650
1 5.76828359840723053e+01 0.0 0.0
1 -6.16417176032665850e+01 0.0 0.0
1 2.70885519549450429e+01 0.0 0.0
1 9.32112054317140881e+00 0.0 0.0
1 -8.14204800098633257e+01 0.0 0.0
1 -8.96846485702038478e+01 0.0 0.0
1 2.37627286820261041e+01 0.0 0.0
1 2.37432688679998938e+00 0.0 0.0
8
Step 660
1 5.25173426090768558e+01 0.0 0.0
1 -6.26331575647885472e+01 0.0 0.0
1 3.52817830810173376e+01 0.0 0.0
1 1.17872111454496959e+01 0.0 0.0
1 -7.87093438381355668e+01 0.0 0.0
1 -9.17512059937305651e+01 0.0 0.0
1 2.70737542969343288e+01 0.0 0.0
1 -4.92297574115096115e+00 0.0 0.0
8
Step 670
1 4.62969354454474953e+01 0.0 0.0
1 -6.31616879297783669e+01 0.0 0.0
1 4.27606304452715733e+01 0.0 0.0
1 1.40543709206880454e+01 0.0 0.0
1 -7.53597601435929079e+01 0.0 0.0
1 -9.31358489051308993e+01 0.0 0.0
1 2.97365723909818875e+01 0.0 0.0
1 -1.19106483615736778e+01 0.0 0.0
8
Step 680
1 3.90722468185386091e+01 0.0 0.0
1 -6.32342139887654398e+01 0.0 0.0
1 4.94558532113351674e+01 0.0 0.0
1 1.60867876010362529e+01 0.0 0.0
1 -7.14164367263521882e+01 0.0 0.0
1 -9.38602890849065972e+01 0.0 0.0
1 3.17201733305921714e+01 0.0 0.0
1 -1.84883796649521841e+01 0.0 0.0
8
Step 690
1 3.09093206994206255e+01 0.0 0.0
1 -6.28599315103617400e+01 0.0 0.0
1 5.53090857745424813e+01 0.0 0.0
1 1.78521569209769559e+01 0.0 0.0
1 -6.69302100188093760e+01 0.0 0.0
1 -9.39521690611390312e+01 0.0 0.0
1 3.30027547065968179e+01 0.0 0.0
1 -2.45641466417104084e+01 0.0 0.0
8
Step 700
1 2.18887265613205138e+01 0.0 0.0
1 -6.20502180620560324e+01 0.0 0.0
1 6.02732699808790642e+01 0.0 0.0
1 1.93221118663783180e+01 0.0 0.0
1 -6.19573165752917987e+01 0.0 0.0
1 -9.34445189742743310e+01 0.0 0.0
1 3.35718485009618917e+01 0.0 0.0
1 -3.00552027122811189e+01 0.0 0.0
8
Step 710
1 1.21045101345506207e+01 0.0 0.0
1 -6.08185463853723007e+01 0.0 0.0
1 6.43129686077686245e+01 0.0 0.0
1 2.04726021254150901e+01 0.0 0.0
1 -5.65586306787114168e+01 0.0 0.0
1 -9.23751871703118468e+01 0.0 0.0
1 3.34243556433081679e+01 0.0 0.0
1 -3.48889198198211190e+01 0.0 0.0
8
Step 720
1 1.66298726318894263e+00 0.0 0.0
1 -5.91804168307747105e+01 0.0 0.0
1 6.74045647697105039e+01 0.0 0.0
1 2.12842223099510761e+01 0.0 0.0
1 -5.07988711923226717e+01 0.0 0.0
1 -9.07862495388318109e+01 0.0 0.0
1 3.25664902464584003e+01 0.0 0.0
1 -3.90034862815339309e+01 0.0 0.0
8
Step 730
1 -9.31861432145839963e+00 0.0 0.0
1 -5.71533040864347583e+01 0.0 0.0
1 6.95363485087345765e+01 0.0 0.0
1 2.17424864475722330e+01 0.0 0.0
1 -4.47457797271750763e+01 0.0 0.0
1 -8.87234004912993015e+01 0.0 0.0
1 3.10136334086205849e+01 0.0 0.0
1 -4.23484605912097720e+01 0.0 0.0
8
Step 740
1 -2.07136600866521086e+01 0.0 0.0
1 -5.47566122142358083e+01 0.0 0.0
1 7.07084886153155452e+01 0.0 0.0
1 2.18380451157761115e+01 0.0 0.0
1 -3.84692722266334286e+01 0.0 0.0
1 -8.62353271438575462e+01 0.0 0.0
1 2.87900946043791492e+01 0.0 0.0
1 -4.48851793614145862e+01 0.0 0.0
8
Step 750
1 -3.23877531061015702e+01 0.0 0.0
1 -5.20116314002843794e+01 0.0 0.0
1 7.09328852585495895e+01 0.0 0.0
1 2.15668406588747921e+01 0.0 0.0
1 -3.20405671423881273e+01 0.0 0.0
1 -8.33730678250960011e+01 0.0 0.0
1 2.59287777021923738e+01 0.0 0.0
1 -4.65870157678873440e+01 0.0 0.0
8
Step 760
1 -4.42005062048534683e+01 0.0 0.0
1 -4.89414898446738960e+01 0.0 0.0
1 7.02328977189231551e+01 0.0 0.0
1 2.09301954201835478e+01 0.0 0.0
1 -2.55312953137627829e+01 0.0 0.0
1 -8.01893564549272355e+01 0.0 0.0
1 2.24707487587706609e+01 0.0 0.0
1 -4.74394837250562560e+01 0.0 0.0
8
Step 770
1 -5.60074248967761434e+01 0.0 0.0
1 -4.55710948129678002e+01 0.0 0.0
1 6.86429416795739229e+01 0.0 0.0
1 1.99348280029733615e+01 0.0 0.0
1 -1.90125991782547068e+01 0.0 0.0
1 -7.67379555120084405e+01 0.0 0.0
1 1.84647040173944994e+01 0.0 0.0
1 -4.74401829699611000e+01 0.0 0.0
8
Step 780
1 -6.76618781253057620e+01 0.0 0.0
1 -4.19270579589147516e+01 0.0 0.0
1 6.62079522161528473e+01 0.0 0.0
1 1.85927933299163222e+01 0.0 0.0
1 -1.25542316773161922e+01 0.0 0.0
1 -7.30729820138945882e+01 0.0 0.0
1 1.39663388894469911e+01 0.0 0.0
1 -4.65985814839229562e+01 0.0 0.0
8
Step 790
1 -7.90171278393448517e+01 0.0 0.0
1 -3.80376014727701204e+01 0.0 0.0
1 6.29827117052043732e+01 0.0 0.0
1 1.69213436976679077e+01 0.0 0.0
1 -6.22366778818540034e+00 0.0 0.0
1 -6.92482329066319551e+01 0.0 0.0
1 9.03762189263826343e+00 0.0 0.0
1 -4.49356342650545102e+01 0.0 0.0
8
Step 800
1 -8.99283833047418284e+01 0.0 0.0
1 -3.39324432504929945e+01 0.0 0.0
1 5.90310460361676235e+01 0.0 0.0
1 1.49427100239506672e+01 0.0 0.0
1 -8.52436382899608436e-02 0.0 0.0
1 -6.53165182029503484e+01 0.0 0.0
1 3.74598120441693361e+00 0.0 0.0
1 -4.24832412114182318e+01 0.0 0.0
8
Step 810
1 -1.00254842471946219e+02 0.0 0.0
1 -2.96426609382272304e+01 0.0 0.0
1 5.44248973067439934e+01 0.0 0.0
1 1.26838048809699782e+01 0.0 0.0
1 5.80066066323463758e+00 0.0 0.0
1 -6.13290118354773242e+01 0.0 0.0
1 -1.83658476029399753e+00 0.0 0.0
1 -3.92835514406427748e+01 0.0 0.0
8
Step 820
1 -1.09861681218033041e+02 0.0 0.0
1 -2.52005362078413420e+01 0.0 0.0
1 4.92432860631131177e+01 0.0 0.0
1 1.01758514647638645e+01 0.0 0.0
1 1.13783782121764716e+01 0.0 0.0
1 -5.73346312653080048e+01 0.0 0.0
1 -7.63445796498185825e+00 0.0 0.0
1 -3.53881262849359715e+01 0.0 0.0
8
Step 830
1 -1.18621952123284814e+02 0.0 0.0
1 -2.06393818082349441e+01 0.0 0.0
1 4.35711805599917810e+01 0.0 0.0
1 7.45394510269610322e+00 0.0 0.0
1 1.65976372326781174e+01 0.0 0.0
1 -5.33794572460393724e+01 0.0 0.0
1 -1.35693951842501423e+01 0.0 0.0
1 -3.08569779264400701e+01 0.0 0.0
8
Step 840
1 -1.26418357593440348e+02 0.0 0.0
1 -1.59933546989263853e+01 0.0 0.0
1 3.74982939699127655e+01 0.0 0.0
1 4.55655599959344393e+00 0.0 0.0
1 2.14141544755232189e+01 0.0 0.0
1 -4.95062047251761683e+01 0.0 0.0
1 -1.95615473606365669e+01 0.0 0.0
1 -2.57575046576660469e+01 0.0 0.0
8
Step 850
1 -1.33144867263759522e+02 0.0 0.0
1 -1.12972588468574795e+01 0.0 0.0
1 3.11178326084888610e+01 0.0 0.0
1 1.52498346346434976e+00 0.0 0.0
1 2.57901296765632502e+01 0.0 0.0
1 -4.57537547068012600e+01 0.0 0.0
1 -2.55304847137587032e+01 0.0 0.0
1 -2.01633466370160157e+01 0.0 0.0
8
Step 860
1 -1.38708156137120397e+02 0.0 0.0
1 -6.58634105605785880e+00 0.0 0.0
1 2.45252188858913271e+01 0.0 0.0
1 -1.59722729271550357e+00 0.0 0.0
1 2.96946340296431899e+01 0.0 0.0
1 -4.21567551311901383e+01 0.0 0.0
1 -3.13962093821863490e+01 0.0 0.0
1 -1.41531874835245208e+01 0.0 0.0
8
Step 870
1 -1.43028847074579119e+02 0.0 0.0
1 -1.89608256530885688e+00 0.0 0.0
1 1.78168118669232776e+01 0.0 0.0
1 -4.76489454016935188e+00 0.0 0.0
1 3.31038891630616661e+01 0.0 0.0
1 -3.87452966455372234e+01 0.0 0.0
1 -3.70801393977515659e+01 0.0 0.0
1 -7.80952702830202128e+00 0.0 0.0
8
Step 880
1 -1.46042548287718148e+02 0.0 0.0
1 2.73801179511925330e+00 0.0 0.0
1 1.10886462316425405e+01 0.0 0.0
1 -7.93182490413951768e+00 0.0 0.0
1 3.60014364559201425e+01 0.0 0.0
1 -3.55446667762306845e+01 0.0 0.0
1 -4.25060505854676194e+01 0.0 0.0
1 -1.21744911415689927e+00 0.0 0.0
8
Step 890
1 -1.47700682662522098e+02 0.0 0.0
1 7.28062620199055921e+00 0.0 0.0
1 4.43520742864626705e+00 0.0 0.0
1 -1.10514440456366820e+01 0.0 0.0
1 3.83781993908940109e+01 0.0 0.0
1 -3.25751836967373336e+01 0.0 0.0
1 -4.76009661762396803e+01 0.0 0.0
1 5.53659422458688066e+00 0.0 0.0
8
Step 900
1 -1.47971110525962018e+02 0.0 0.0
1 1.16968486116051462e+01 0.0 0.0
1 -2.05174265926188415e+00 0.0 0.0
1 -1.40774248512055120e+01 0.0 0.0
1 4.02324438041739469e+01 0.0 0.0
1 -2.98521087123657196e+01 0.0 0.0
1 -5.22959871170659483e+01 0.0 0.0
1 1.23659641827781339e+01 0.0 0.0
8
Step 910
1 -1.46838550530174132e+02 0.0 0.0
1 1.59523890725790398e+01 0.0 0.0
1 -8.28427870920209841e+00 0.0 0.0
1 -1.69643062950836985e+01 0.0 0.0
1 4.15696422640281966e+01 0.0 0.0
1 -2.73856348939030312e+01 0.0 0.0
1 -5.65270588995661214e+01 0.0 0.0
1 1.91849678206562686e+01 0.0 0.0
8
Step 920
1 -1.44304804609335946e+02 0.0 0.0
1 2.00138036045882117e+01 0.0 0.0
1 -1.41793558887936708e+01 0.0 0.0
1 -1.96680974976417779e+01 0.0 0.0
1 4.24022494018784286e+01 0.0 0.0
1 -2.51809480586464609e+01 0.0 0.0
1 -6.02356729148268784e+01 0.0 0.0
1 2.59099310666263491e+01 0.0 0.0
8
Step 930
1 -1.40388792633958218e+02 0.0 0.0
1 2.38487259455806324e+01 0.0 0.0
1 -1.96597794038575167e+01 0.0 0.0
1 -2.21468625769979894e+01 0.0 0.0
1 4.27493949472518935e+01 0.0 0.0
1 -2.32383555244766136e+01 0.0 0.0
1 -6.33695016994577927e+01 0.0 0.0
1 3.24602043202515844e+01 0.0 0.0
8
Step 940
1 -1.35126400814504024e+02 0.0 0.0
1 2.74261093135189142e+01 0.0 0.0
1 -2.46550958571890888e+01 0.0 0.0
1 -2.43612825532911863e+01 0.0 0.0
1 4.26365006657732408e+01 0.0 0.0
1 -2.15534776972740829e+01 0.0 0.0
1 -6.58829679009852072e+01 0.0 0.0
1 3.87590952646664562e+01 0.0 0.0
8
Step 950
1 -1.28570145593910411e+02 0.0 0.0
1 3.07164797331351522e+01 0.0 0.0
1 -2.91024031765413476e+01 0.0 0.0
1 -2.62751907575862624e+01 0.0 0.0
1 4.20948265935009829e+01 0.0 0.0
1 -2.01174974987930177e+01 0.0 0.0
1 -6.77377464105993852e+01 0.0 0.0
1 4.47347250314441496e+01 0.0 0.0
8
Step 960
1 -1.20788652287889974e+02 0.0 0.0
1 3.36922014793414917e+01 0.0 0.0
1 -3.29470755520685117e+01 0.0 0.0
1 -2.78560779265343754e+01 0.0 0.0
1 4.11609511368137149e+01 0.0 0.0
1 -1.89174627814726364e+01 0.0 0.0
1 -6.89031980362198766e+01 0.0 0.0
1 5.03208045383483267e+01 0.0 0.0
8
Step 970
1 -1.11865945658232178e+02 0.0 0.0
1 3.63277538588770952e+01 0.0 0.0
1 -3.61433987974865332e+01 0.0 0.0
1 -2.90755624984458194e+01 0.0 0.0
1 3.98761889819350728e+01 0.0 0.0
1 -1.79366370823940358e+01 0.0 0.0
1 -6.93567315426630131e+01 0.0 0.0
1 5.54573277344193230e+01 0.0 0.0
8
Step 980
1 -1.01900548460320010e+02 0.0 0.0
1 3.86000169918503175e+01 0.0 0.0
1 -3.86551100708271846e+01 0.0 0.0
1 -2.99098206876953547e+01 0.0 0.0
1 3.82859505090290710e+01 0.0 0.0
1 -1.71548942233482649e+01 0.0 0.0
1 -6.90840891415988949e+01 0.0 0.0
1 6.00911778178247999e+01 0.0 0.0
8
Step 990
1 -9.10043842128767579e+01 0.0 0.0
1 4.04885625884965634e+01 0.0 0.0
1 -4.04558342684031800e+01 0.0 0.0
1 -3.03399698633621320e+01 0.0 0.0
1 3.64390466531979698e+01 0.0 0.0
1 -1.65491522717997555e+01 0.0 0.0
1 -6.80795488675780405e+01 0.0 0.0
1 6.41766414823515419e+01 0.0 0.0
8
Step 1000
1 -7.93014822750383814e+01 0.0 0.0
1 4.19759440815832008e+01 0.0 0.0
1 -4.15294079698605358e+01 0.0 0.0
1 -3.03523977796032298e+01 0.0 0.0
1 3.43869439524181999e+01 0.0 0.0
1 -1.60938421731605033e+01 0.0 0.0
1 -6.63460360186453499e+01 0.0 0.0
1 6.76758251757534737e+01 0.0 0.0
8
Step 1010
1 -6.69264868896809730e+01 0.0 0.0
1 4.30479790152483730e+01 0.0 0.0
1 -4.18700808832874145e+01 0.0 0.0
1 -2.99390294901413050e+01 0.0 0.0
1 3.21829758522708360e+01 0.0 0.0
1 -1.57614059200144716e+01 0.0 0.0
1 -6.38951352304994558e+01 0.0 0.0
1 7.05589665016261733e+01 0.0 0.0
8
Step 1020
1 -5.40229770756407035e+01 0.0 0.0
1 4.36940154464557793e+01 0.0 0.0
1 -4.14825845951617325e+01 0.0 0.0
1 -2.90975235039179516e+01 0.0 0.0
1 2.98815181096796998e+01 0.0 0.0
1 -1.55228184506361302e+01 0.0 0.0
1 -6.07469949940946989e+01 0.0 0.0
1 7.28046335288318573e+01 0.0 0.0
8
Step 1030
1 -4.07416108392085619e+01 0.0 0.0
1 4.39071734098902553e+01 0.0 0.0
1 -4.03820592747227352e+01 0.0 0.0
1 -2.78313890451522141e+01 0.0 0.0
1 2.75371381986021184e+01 0.0 0.0
1 -1.53481266187895127e+01 0.0 0.0
1 -5.69301176394944122e+01 0.0 0.0
1 7.43998051026904363e+01 0.0 0.0
8
Step 1040
1 -2.72381146558856138e+01 0.0 0.0
1 4.36845523268671840e+01 0.0 0.0
1 -3.85938309195716229e+01 0.0 0.0
1 -2.61500172563668656e+01 0.0 0.0