8
Step 0
1 3.94217382670848053e+01 0.0 0.0
1 8.86930133271171144e+01 0.0 0.0
1 -4.31651493543225655e+01 0.0 0.0
1 1.71805978663685437e+01 0.0 0.0
1 1.30818143144767532e+02 0.0 0.0
1 7.67588324996520157e+01 0.0 0.0
1 -6.13113746399629207e+01 0.0 0.0
1 1.15482323690817282e+02 0.0 0.0
8
Step 10
1 5.12889884116741825e+01 0.0 0.0
1 9.15270557638187086e+01 0.0 0.0
1 -4.77143401099160229e+01 0.0 0.0
1 1.46132320721246316e+01 0.0 0.0
1 1.29647832357733762e+02 0.0 0.0
1 7.74438480709543313e+01 0.0 0.0
1 -5.87688117660693337e+01 0.0 0.0
1 1.14311590707540248e+02 0.0 0.0
8
Step 20
1 6.32246591483162916e+01 0.0 0.0
1 9.29868255757210846e+01 0.0 0.0
1 -5.15820454307023013e+01 0.0 0.0
1 1.14123105026953180e+01 0.0 0.0
1 1.27937801309426987e+02 0.0 0.0
1 7.81930717979667804e+01 0.0 0.0
1 -5.57132928429676184e+01 0.0 0.0
1 1.11844051847753519e+02 0.0 0.0
8
Step 30
1 7.50894467115770112e+01 0.0 0.0
1 9.30458139545644514e+01 0.0 0.0
1 -5.47553851046877185e+01 0.0 0.0
1 7.63769892234729575e+00 0.0 0.0
1 1.25694317149420371e+02 0.0 0.0
1 7.90012750389516611e+01 0.0 0.0
1 -5.21539138750006117e+01 0.0 0.0
1 1.08085998321638129e+02 0.0 0.0
8
Step 40
1 8.67429998243506901e+01 0.0 0.0
1 9.16929615324073097e+01 0.0 0.0
1 -5.72295643866848565e+01 0.0 0.0
1 3.35988902119478849e+00 0.0 0.0
1 1.22926129858840568e+02 0.0 0.0
1 7.98627933286220326e+01 0.0 0.0
1 -4.81043448649427603e+01 0.0 0.0
1 1.03058473714293243e+02 0.0 0.0
8
Step 50
1 9.80456978304354863e+01 0.0 0.0
1 8.89347111427610315e+01 0.0 0.0
1 -5.90097991505024879e+01 0.0 0.0
1 -1.34121917011934988e+00 0.0 0.0
1 1.19644584109668330e+02 0.0 0.0
1 8.07717477173153924e+01 0.0 0.0
1 -4.35829720939498984e+01 0.0 0.0
1 9.67973192161272209e+01 0.0 0.0
8
Step 60
1 1.08860278223419698e+02 0.0 0.0
1 8.47968895460944765e+01 0.0 0.0
1 -6.01126795748900378e+01 0.0 0.0
1 -6.37766834074278144e+00 0.0 0.0
1 1.15863713015285086e+02 0.0 0.0
1 8.17212707517713568e+01 0.0 0.0
1 -3.86130377392868738e+01 0.0 0.0
1 8.93538541531477222e+01 0.0 0.0
8
Step 70
1 1.19053283628260175e+02 0.0 0.0
1 7.93259400360280011e+01 0.0 0.0
1 -6.05665184192299506e+01 0.0 0.0
1 -1.16549583268761516e+01 0.0 0.0
1 1.11600287271007616e+02 0.0 0.0
1 8.27019178776044299e+01 0.0 0.0
1 -3.32227837083072259e+01 0.0 0.0
1 8.07960976211675188e+01 0.0 0.0
8
Step 80
1 1.28496336263904766e+02 0.0 0.0
1 7.25893361995959339e+01 0.0 0.0
1 -6.04106271137142485e+01 0.0 0.0
1 -1.70737576410201122e+01 0.0 0.0
1 1.06873798162298542e+02 0.0 0.0
1 8.36997831131330372e+01 0.0 0.0
1 -2.74456042918837149e+01 0.0 0.0
1 7.12101337825455545e+01 0.0 0.0
8
Step 90
1 1.37067307847028985e+02 0.0 0.0
1 6.46753435725128156e+01 0.0 0.0
1 -5.96938407834371390e+01 0.0 0.0
1 -2.25318004427718961e+01 0.0 0.0
1 1.01706364620821645e+02 0.0 0.0
1 8.46949051584627739e+01 0.0 0.0
1 -2.13201952440356699e+01 0.0 0.0
1 6.07010536894257484e+01 0.0 0.0
8
Step 100
1 1.44651514096571020e+02 0.0 0.0
1 5.56923636525778107e+01 0.0 0.0
1 -5.84727187208838259e+01 0.0 0.0
1 -2.79258827448319877e+01 0.0 0.0
1 9.61225712641145265e+01 0.0 0.0
1 8.56603604735709467e+01 0.0 0.0
1 -1.48906398651128047e+01 0.0 0.0
1 4.93929306647146120e+01 0.0 0.0
8
Step 110
1 1.51143075817233694e+02 0.0 0.0
1 4.57678954472130286e+01 0.0 0.0
1 -5.68096996511429069e+01 0.0 0.0
1 -3.31538214655824675e+01 0.0 0.0
1 9.01492636523294379e+01 0.0 0.0
1 8.65621677415830391e+01 0.0 0.0
1 -8.20631345911840882e+00 0.0 0.0
1 3.74274745544855918e+01 0.0 0.0
8
Step 120
1 1.56446518267051772e+02 0.0 0.0
1 3.50469533176289403e+01 0.0 0.0
1 -5.47712902409351088e+01 0.0 0.0
1 -3.81162414834614509e+01 0.0 0.0
1 8.38153383491462876e+01 0.0 0.0
1 8.73599123233303345e+01 0.0 0.0
1 -1.32148213106714119e+00 0.0 0.0
1 2.49612929184351806e+01 0.0 0.0
8
Step 130
1 1.60478555975406607e+02 0.0 0.0
1 2.36897843976278573e+01 0.0 0.0
1 -5.24262520245212613e+01 0.0 0.0
1 -4.27180861725389178e+01 0.0 0.0
1 7.71515558454457420e+01 0.0 0.0
1 8.80078871826473943e+01 0.0 0.0
1 5.70543223953400513e+00 0.0 0.0
1 1.21619686323296889e+01 0.0 0.0
8
Step 140
1 1.63169905372620150e+02 0.0 0.0
1 1.18688890258812396e+01 0.0 0.0
1 -4.98437374065443635e+01 0.0 0.0
1 -4.68697767210865024e+01 0.0 0.0
1 7.01903746732726290e+01 0.0 0.0
1 8.84565326642228342e+01 0.0 0.0
1 1.28128024080339138e+01 0.0 0.0
1 -7.96651779812675986e-01 0.0 0.0
8
Step 150
1 1.64466934347087033e+02 0.0 0.0
1 -2.34495607843952625e-01 0.0 0.0
1 -4.70913563736778684e+01 0.0 0.0
1 -5.04879857438651811e+01 0.0 0.0
1 6.29657734116773824e+01 0.0 0.0
1 8.86540044520664310e+01 0.0 0.0
1 1.99367625251171994e+01 0.0 0.0
1 -1.37395147196991463e+01 0.0 0.0
8
Step 160
1 1.64332992054764304e+02 0.0 0.0
1 -1.24342273924447042e+01 0.0 0.0
1 -4.42331830877337921e+01 0.0 0.0
1 -5.34960750571660597e+01 0.0 0.0
1 5.55130163818786713e+01 0.0 0.0
1 8.85477585843180321e+01 0.0 0.0
1 2.70120437790610737e+01 0.0 0.0
1 -2.64953663638825851e+01 0.0 0.0
8
Step 170
1 1.62749327725611607e+02 0.0 0.0
1 -2.45432086102712077e+01 0.0 0.0
1 -4.13277209614293000e+01 0.0 0.0
1 -5.58243755327540683e+01 0.0 0.0
1 4.78683387704406798e+01 0.0 0.0
1 8.80860847448729771e+01 0.0 0.0
1 3.39726688022550860e+01 0.0 0.0
1 -3.89013946093878573e+01 0.0 0.0
8
Step 180
1 1.59715571407251502e+02 0.0 0.0
1 -3.63773081861382650e+01 0.0 0.0
1 -3.84258612614308959e+01 0.0 0.0
1 -5.74105993848458525e+01 0.0 0.0
1 4.00685666495934001e+01 0.0 0.0
1 8.72195447225830236e+01 0.0 0.0
1 4.07526082719364027e+01 0.0 0.0
1 -5.08072386169667851e+01 0.0 0.0
8
Step 190
1 1.55249797868710800e+02 0.0 0.0
1 -4.77591513362784355e+01 0.0 0.0
1 -3.55689469942130074e+01 0.0 0.0
1 -5.82006891801667763e+01 0.0 0.0
1 3.21507208463600449e+01 0.0 0.0
1 8.59022976964195237e+01 0.0 0.0
1 4.72865159888737452e+01 0.0 0.0
1 -6.20780891374537944e+01 0.0 0.0
8
Step 200
1 1.49388225605869849e+02 0.0 0.0
1 -5.85216613649996802e+01 0.0 0.0
1 -3.27872339725119843e+01 0.0 0.0
1 -5.81502762020218427e+01 0.0 0.0
1 2.41516598696666414e+01 0.0 0.0
1 8.40933256134082541e+01 0.0 0.0
1 5.35105802375599637e+01 0.0 0.0
1 -7.25965681312734006e+01 0.0 0.0
8
Step 210
1 1.42184617822215415e+02 0.0 0.0
1 -6.85111584126461821e+01 0.0 0.0
1 -3.00992854628901405e+01 0.0 0.0
1 -5.72266712300097495e+01 0.0 0.0
1 1.61077971786806806e+01 0.0 0.0
1 8.17575994861279014e+01 0.0 0.0
1 5.93634315660595533e+01 0.0 0.0
1 -8.22631108118715844e+01 0.0 0.0
8
Step 220
1 1.33709451333180965e+02 0.0 0.0
1 -7.75897044532355551e+01 0.0 0.0
1 -2.75129541660076029e+01 0.0 0.0
1 -5.54110474249031100e+01 0.0 0.0
1 8.05490124207252833e+00 0.0 0.0
1 7.88672316044912947e+01 0.0 0.0
1 6.47870004223842670e+01 0.0 0.0
1 -9.09947957963402274e+01 0.0 0.0
8
Step 230
1 1.24048904500589757e+02 0.0 0.0
1 -8.56363716419306371e+01 0.0 0.0
1 -2.50283154344187544e+01 0.0 0.0
1 -5.27003349900993854e+01 0.0 0.0
1 2.79704120602285444e-02 0.0 0.0
1 7.54026314700440423e+01 0.0 0.0
1 6.97272427672825046e+01 0.0 0.0
1 -9.87230097184884272e+01 0.0 0.0
8
Step 240
1 1.13303697680350425e+02 0.0 0.0
1 -9.25473516537005878e+01 0.0 0.0
1 -2.26421572529455482e+01 0.0 0.0
1 -4.91084150694399000e+01 0.0 0.0
1 -7.93883033781824921e+00 0.0 0.0
1 7.13536355718368043e+01 0.0 0.0
1 7.41347162317269976e+01 0.0 0.0
1 -1.05390804290378739e+02 0.0 0.0
8
Step 250
1 1.01587814010224605e+02 0.0 0.0
1 -9.82352447410190877e+01 0.0 0.0
1 -2.03528314320559183e+01 0.0 0.0
1 -4.46664340473262982e+01 0.0 0.0
1 -1.58121855157857851e+01 0.0 0.0
1 6.67205287528384048e+01 0.0 0.0
1 7.79650437473379583e+01 0.0 0.0
1 -1.10950962467480878e+02 0.0 0.0
8
Step 260
1 8.90271348654998462e+01 0.0 0.0
1 -1.02628150591935892e+02 0.0 0.0
1 -1.81640366122020716e+01 0.0 0.0
1 -3.94223126674333173e+01 0.0 0.0
1 -2.35596122452714241e+01 0.0 0.0
1 6.15148226030552934e+01 0.0 0.0
1 8.11793171702851168e+01 0.0 0.0
1 -1.15365464716630669e+02 0.0 0.0
8
Step 270
1 7.57580245601116218e+01 0.0 0.0
1 -1.05669105120779179e+02 0.0 0.0
1 -1.60865783489828793e+01 0.0 0.0
1 -3.34396645023831169e+01 0.0 0.0
1 -3.11494150932306084e+01 0.0 0.0
1 5.57596059426659920e+01 0.0 0.0
1 8.37444765195098455e+01 0.0 0.0
1 -1.18606449990552449e+02 0.0 0.0
8
Step 280
1 6.19258754396557904e+01 0.0 0.0
1 -1.07316080247202493e+02 0.0 0.0
1 -1.41379224007604449e+01 0.0 0.0
1 -2.67963410145715137e+01 0.0 0.0
1 -3.85506000838282077e+01 0.0 0.0
1 4.94892599309837991e+01 0.0 0.0
1 8.56336745271352413e+01 0.0 0.0
1 -1.20658257788457462e+02 0.0 0.0
8
Step 290
1 4.76835784274708061e+01 0.0 0.0
1 -1.07542452742759025e+02 0.0 0.0
1 -1.23399915979940005e+01 0.0 0.0
1 -1.95827489484398818e+01 0.0 0.0
1 -4.57327276031427843e+01 0.0 0.0
1 4.27483908936111092e+01 0.0 0.0
1 8.68266178344423736e+01 0.0 0.0
1 -1.21519881136631710e+02 0.0 0.0
8
Step 300
1 3.31898344704548194e+01 0.0 0.0
1 -1.06337701752007916e+02 0.0 0.0
1 -1.07160179169949181e+01 0.0 0.0
1 -1.19000098840774804e+01 0.0 0.0
1 -5.26657067627641240e+01 0.0 0.0
1 3.55900174809872567e+01 0.0 0.0
1 8.73098680669467768e+01 0.0 0.0
1 -1.21207116018137427e+02 0.0 0.0
8
Step 310
1 1.86071967154404483e+01 0.0 0.0
1 -1.03708104659051926e+02 0.0 0.0
1 -9.28736024397251114e+00 0.0 0.0
1 -3.85798393442884713e+00 0.0 0.0
1 -5.93195906477307275e+01 0.0 0.0
1 2.80733098795801403e+01 0.0 0.0
1 8.70770840551561491e+01 0.0 0.0
1 -1.19753801128700260e+02 0.0 0.0
8
Step 320
1 4.09975396269380354e+00 0.0 0.0
1 -9.96772960586333596e+01 0.0 0.0
1 -8.07102278120443728e+00 0.0 0.0
1 4.42683848954570891e+00 0.0 0.0
1 -6.56644913527400149e+01 0.0 0.0
1 2.02613689057508530e+01 0.0 0.0
1 8.61291868830756613e+01 0.0 0.0
1 -1.17211786684087755e+02 0.0 0.0
8
Step 330
1 -1.01695657082859121e+01 0.0 0.0
1 -9.42866589544206875e+01 0.0 0.0
1 -7.07818623898274524e+00 0.0 0.0
1 1.28335713130432119e+01 0.0 0.0
1 -7.16707416338573751e+01 0.0 0.0
1 1.22194971783976118e+01 0.0 0.0
1 8.44744310257701159e+01 0.0 0.0
1 -1.13649611511582251e+02 0.0 0.0
8
Step 340
1 -2.40420021826518813e+01 0.0 0.0
1 -8.75955639898883049e+01 0.0 0.0
1 -6.31357832259232499e+00 0.0 0.0
1 2.12392801115838168e+01 0.0 0.0
1 -7.73093566362822173e+01 0.0 0.0
1 4.01414644859920600e+00 0.0 0.0
1 8.21283681400933290e+01 0.0 0.0
1 -1.09150198083391956e+02 0.0 0.0
8
Step 350
1 -3.73661402550388857e+01 0.0 0.0
1 -7.96814210753349386e+01 0.0 0.0
1 -5.77524453587648967e+00 0.0 0.0
1 2.95214280637493118e+01 0.0 0.0
1 -8.25527296136250754e+01 0.0 0.0
1 -4.28759208096207889e+00 0.0 0.0
1 7.91136962059076438e+01 0.0 0.0
1 -1.03808077946469297e+02 0.0 0.0
8
Step 360
1 -5.00010891127527017e+01 0.0 0.0
1 -7.06393826833226939e+01 0.0 0.0
1 -5.45439172420444507e+00 0.0 0.0
1 3.75604245412499509e+01 0.0 0.0
1 -8.73754089911330993e+01 0.0 0.0
1 -1.26182321244684736e+01 0.0 0.0
1 7.54599962028842839e+01 0.0 0.0
1 -9.77266793577230430e+01 0.0 0.0
8
Step 370
1 -6.18195127844867258e+01 0.0 0.0
1 -6.05814493199557234e+01 0.0 0.0
1 -5.33533027243456814e+00 0.0 0.0
1 4.52423061937021771e+01 0.0 0.0
1 -9.17548031607872190e+01 0.0 0.0
1 -2.09100600277382433e+01 0.0 0.0
1 7.12033698755242312e+01 0.0 0.0
1 -9.10160696242670468e+01 0.0 0.0
8
Step 380
1 -7.27103693307856389e+01 0.0 0.0
1 -4.96348074863680964e+01 0.0 0.0
1 -5.39580413938564973e+00 0.0 0.0
1 5.24615606159527275e+01 0.0 0.0
1 -9.56717236045223416e+01 0.0 0.0
1 -2.90952267901864055e+01 0.0 0.0
1 6.63859999577235982e+01 0.0 0.0
1 -8.37913197617100991e+01 0.0 0.0
8
Step 390
1 -8.25811560898640806e+01 0.0 0.0
1 -3.79394864610189870e+01 0.0 0.0
1 -5.60794602097930017e+00 0.0 0.0
1 5.91239543670437797e+01 0.0 0.0
1 -9.91107383882468156e+01 0.0 0.0
1 -3.71056656788203583e+01 0.0 0.0
1 6.10556484115755467e+01 0.0 0.0
1 -7.61714159302061091e+01 0.0 0.0
8
Step 400
1 -9.13593426309895875e+01 0.0 0.0
1 -2.56456580370716622e+01 0.0 0.0
1 -5.93981493971154162e+00 0.0 0.0
1 6.51489409340912573e+01 0.0 0.0
1 -1.02060321958293855e+02 0.0 0.0
1 -4.48728168087280963e+01 0.0 0.0
1 5.52650811023383142e+01 0.0 0.0
1 -6.82784077434390042e+01 0.0 0.0
8
Step 410
1 -9.89926699169083122e+01 0.0 0.0
1 -1.29108857799497816e+01 0.0 0.0
1 -6.35723483927451749e+00 0.0 0.0
1 7.04710045848233619e+01 0.0 0.0
1 -1.04512778278646508e+02 0.0 0.0
1 -5.23273461289516675e+01 0.0 0.0
1 4.90713725420644451e+01 0.0 0.0
1 -6.02363034838552736e+01 0.0 0.0
8
Step 420
1 -1.05448274647929821e+02 0.0 0.0
1 1.02635173108329258e-01 0.0 0.0
1 -6.82562065338373358e+00 0.0 0.0
1 7.50394726652008899e+01 0.0 0.0
1 -1.06463943021014842e+02 0.0 0.0
1 -5.93991964188518935e+01 0.0 0.0
1 4.25350440526433857e+01 0.0 0.0
1 -5.21692449303716614e+01 0.0 0.0
8
Step 430
1 -1.10711029047588198e+02 0.0 0.0
1 1.32310286990842840e+01 0.0 0.0
1 -7.31160571306449825e+00 0.0 0.0
1 7.88169242771627268e+01 0.0 0.0
1 -1.07912743063393719e+02 0.0 0.0
1 -6.60182248929565105e+01 0.0 0.0
1 3.57190505296021854e+01 0.0 0.0
1 -4.41988290711897491e+01 0.0 0.0
8
Step 440
1 -1.14781685790071194e+02 0.0 0.0
1 2.63120067864262737e+01 0.0 0.0
1 -7.78442708485030987e+00 0.0 0.0
1 8.17768657481827148e+01 0.0 0.0
1 -1.08860740108487235e+02 0.0 0.0
1 -7.21154066812408416e+01 0.0 0.0
1 2.86877155435584044e+01 0.0 0.0
1 -3.64409025113180789e+01 0.0 0.0
8
Step 450
1 -1.17675235715817863e+02 0.0 0.0
1 3.91883515312864645e+01 0.0 0.0
1 -8.21708920017555222e+00 0.0 0.0
1 8.39014092736750570e+01 0.0 0.0
1 -1.09311762163585300e+02 0.0 0.0
1 -7.76243530293838973e+01 0.0 0.0
1 2.15057508579981942e+01 0.0 0.0
1 -2.90023908166486990e+01 0.0 0.0
8
Step 460
1 -1.19419563257638089e+02 0.0 0.0
1 5.17113150168597286e+01 0.0 0.0
1 -8.58730626723680501e+00 0.0 0.0
1 8.51793912431902811e+01 0.0 0.0
1 -1.09271662946511498e+02 0.0 0.0
1 -8.24828566102784606e+01 0.0 0.0
1 1.42374640688095653e+01 0.0 0.0
1 -2.19786383119926647e+01 0.0 0.0
8
Step 470
1 -1.20054287583066184e+02 0.0 0.0
1 6.37435759926556003e+01 0.0 0.0
1 -8.87816029282122443e+00 0.0 0.0
1 8.56050654809840523e+01 0.0 0.0
1 -1.08748197768172219e+02 0.0 0.0
1 -8.66342754008508678e+01 0.0 0.0
1 6.94619139213755155e+00 0.0 0.0
1 -1.54515009335846720e+01 0.0 0.0
8
Step 480
1 -1.19629649944605120e+02 0.0 0.0
1 7.51614071825006107e+01 0.0 0.0
1 -9.07835114875796023e+00 0.0 0.0
1 8.51773750329310104e+01 0.0 0.0
1 -1.07750981952217700e+02 0.0 0.0
1 -9.00286808353382071e+01 0.0 0.0
1 -3.06071916308997882e-01 0.0 0.0
1 -9.48823419777413868e+00 0.0 0.0
8
Step 490
1 -1.18205362607539911e+02 0.0 0.0
1 8.58557875470182523e+01 0.0 0.0
1 -9.18190993751056261e+00 0.0 0.0
1 8.38997888400900678e+01 0.0 0.0
1 -1.06291494073602053e+02 0.0 0.0
1 -9.26237686486936838e+01 0.0 0.0
1 -7.45891710797258156e+00 0.0 0.0
1 -4.14109947237320952e+00 0.0 0.0
8
Step 500
1 -1.15849396153239098e+02 0.0 0.0
1 9.57323724580411124e+01 0.0 0.0
1 -9.18734062372169369e+00 0.0 0.0
1 8.17806843914459307e+01 0.0 0.0
1 -1.04383090622672469e+02 0.0 0.0
1 -9.43855645563664609e+01 0.0 0.0
1 -1.44537370709057882e+01 0.0 0.0
1 5.52445250571677926e-01 0.0 0.0
8
Step 510
1 -1.12636720938590628e+02 0.0 0.0
1 1.04710500036059258e+02 0.0 0.0
1 -9.09633534286968093e+00 0.0 0.0
1 7.88342198347020542e+01 0.0 0.0
1 -1.02041007698899037e+02 0.0 0.0
1 -9.52889692446219101e+01 0.0 0.0
1 -2.12339929845567639e+01 0.0 0.0
1 4.56912012532516076e+00 0.0 0.0
8
Step 520
1 -1.08648032908222746e+02 0.0 0.0
1 1.12721651608092472e+02 0.0 0.0
1 -8.91238026766632885e+00 0.0 0.0
1 7.50815789238870792e+01 0.0 0.0
1 -9.92823375291194026e+01 0.0 0.0
1 -9.53181881070009780e+01 0.0 0.0
1 -2.77455740747416257e+01 0.0 0.0
1 7.89890392003948971e+00 0.0 0.0
8
Step 530
1 -1.03968490488794785e+02 0.0 0.0
1 1.19707860355357639e+02 0.0 0.0
1 -8.63961221141596170e+00 0.0 0.0
1 7.05524094184476667e+01 0.0 0.0
1 -9.61259796843384038e+01 0.0 0.0
1 -9.44670821519443678e+01 0.0 0.0
1 -3.39372397886316293e+01 0.0 0.0
1 1.05439442831363781e+01 0.0 0.0
8
Step 540
1 -9.86864767863921770e+01 0.0 0.0
1 1.25620442148296249e+02 0.0 0.0
1 -8.28216556404743720e+00 0.0 0.0
1 6.52862187898758037e+01 0.0 0.0
1 -9.25925750557103555e+01 0.0 0.0
1 -9.27394568048928534e+01 0.0 0.0
1 -3.97610934702924084e+01 0.0 0.0
1 1.25174164509982813e+01 0.0 0.0
8
Step 550
1 -9.28923877332496062e+01 0.0 0.0
1 1.30419203817871079e+02 0.0 0.0
1 -7.84404355805223918e+00 0.0 0.0
1 5.93334563096098435e+01 0.0 0.0
1 -8.87044332917490408e+01 0.0 0.0
1 -9.01492785773521774e+01 0.0 0.0
1 -4.51730254881166289e+01 0.0 0.0
1 1.38424475296661473e+01 0.0 0.0
8
Step 560
1 -8.66774368538695654e+01 0.0 0.0
1 1.34072093386113380e+02 0.0 0.0
1 -7.32937469041488665e+00 0.0 0.0
1 5.27560325449945680e+01 0.0 0.0
1 -8.44854622655229548e+01 0.0 0.0
1 -8.67207860940929010e+01 0.0 0.0
1 -5.01330820023983534e+01 0.0 0.0
1 1.45511990508438096e+01 0.0 0.0
8
Step 570
1 -8.01324619884364040e+01 0.0 0.0
1 1.36555156332912532e+02 0.0 0.0
1 -6.74284168614455481e+00 0.0 0.0
1 4.56271273869848883e+01 0.0 0.0
1 -7.99611030202829909e+01 0.0 0.0
1 -8.24884541787918693e+01 0.0 0.0
1 -5.46057476498803354e+01 0.0 0.0
1 1.46841375963781164e+01 0.0 0.0
8
Step 580
1 -7.33467178760817973e+01 0.0 0.0
1 1.37852643804067242e+02 0.0 0.0
1 -6.09009096958273943e+00 0.0 0.0
1 3.80302865996889210e+01 0.0 0.0
1 -7.51582674185609250e+01 0.0 0.0
1 -7.74967829714575061e+01 0.0 0.0
1 -5.85601566977117471e+01 0.0 0.0
1 1.42894413055221055e+01 0.0 0.0
8
Step 590
1 -6.64066405618832789e+01 0.0 0.0
1 1.37957147676097577e+02 0.0 0.0
1 -5.37799973861328073e+00 0.0 0.0
1 3.00579380452459155e+01 0.0 0.0
1 -7.01052703444557039e+01 0.0 0.0
1 -7.17999113342535082e+01 0.0 0.0
1 -6.19702569593606469e+01 0.0 0.0
1 1.34224295572796759e+01 0.0 0.0
8
Step 600
1 -5.93945765038456130e+01 0.0 0.0
1 1.36869685022289048e+02 0.0 0.0
1 -4.61475190186149753e+00 0.0 0.0
1 2.18095212500015556e+01 0.0 0.0
1 -6.48317457031192674e+01 0.0 0.0
1 -6.54610799051894645e+01 0.0 0.0
1 -6.48149460536115498e+01 0.0 0.0
1 1.21448906609559533e+01 0.0 0.0
8
Step 610
1 -5.23874848916427567e+01 0.0 0.0
1 1.34599707669476743e+02 0.0 0.0
1 -3.80973129528739785e+00 0.0 0.0
1 1.33894144897779270e+01 0.0 0.0
1 -5.93685369372736105e+01 0.0 0.0
1 -5.85519808880633335e+01 0.0 0.0
1 -6.70781889649646246e+01 0.0 0.0
1 1.05242131302429165e+01 0.0 0.0
8
Step 620
1 -4.54556523446777092e+01 0.0 0.0
1 1.31165068412377934e+02 0.0 0.0
1 -2.97327645096151860e+00 0.0 0.0
1 4.90479333028561371e+00 0.0 0.0
1 -5.37475583944660258e+01 0.0 0.0
1 -5.11520252053843762e+01 0.0 0.0
1 -6.87491162230014794e+01 0.0 0.0
1 8.63227671460735735e+00 0.0 0.0
8
Step 630
1 -3.86615108736020687e+01 0.0 0.0
1 1.26592031670414087e+02 0.0 0.0
1 -2.11635761706477865e+00 0.0 0.0
1 -3.53650127558562533e+00 0.0 0.0
1 -4.80016320815797286e+01 0.0 0.0
1 -4.33475389587193689e+01 0.0 0.0
1 -6.98220955391701352e+01 0.0 0.0
1 6.54411135909572472e+00 0.0 0.0
8
Step 640
1 -3.20587201778392057e+01 0.0 0.0
1 1.20915459459742166e+02 0.0 0.0
1 -1.25023495523998629e+00 0.0 0.0
1 -1.18280466665380892e+01 0.0 0.0
1 -4.21643119184111654e+01 0.0 0.0
1 -3.52308812723842166e+01 0.0 0.0
1 -7.02967655434023015e+01 0.0 0.0
1 4.33638240762555061e+00 0.0 0.0
8
Step 650
1 -2.56917382003716241e+01 0.0 0.0
1 1.14179300889339757e+02 0.0 0.0
1 -3.86137856961359549e-01 0.0 0.0
1 -1.98668487526423228e+01 0.0 0.0
1 -3.62697100980536575e+01 0.0 0.0
1 -2.68994646516053564e+01 0.0 0.0
1 -7.01780174205178895e+01 0.0 0.0
1 2.08581127680743617e+00 0.0 0.0
8
Step 660
1 -1.95961014256644503e+01 0.0 0.0
1 1.06437422852544103e+02 0.0 0.0
1 4.65025853990449101e-01 0.0 0.0
1 -2.75552391944856616e+01 0.0 0.0
1 -3.03523337824270953e+01 0.0 0.0
1 -1.84546617551331167e+01 0.0 0.0
1 -6.94759098461660187e+01 0.0 0.0
1 -1.32318644309370487e-01 0.0 0.0
8
Step 670
1 -1.37995044185415896e+01 0.0 0.0
1 9.77546322349206633e+01 0.0 0.0
1 1.29295268477619762e+00 0.0 0.0
1 -3.48025848755778284e+01 0.0 0.0
1 -2.44469260453829662e+01 0.0 0.0
1 -1.00005968866761847e+01 0.0 0.0
1 -6.82055075588159525e+01 0.0 0.0
1 -2.24542447292426894e+00 0.0 0.0
8
Step 680
1 -8.32351014719397675e+00 0.0 0.0
1 8.82075338292136166e+01 0.0 0.0
1 2.08825231550355639e+00 0.0 0.0
1 -4.15267034969212361e+01 0.0 0.0
1 -1.85882918052524104e+01 0.0 0.0
1 -1.64283908637745046e+00 0.0 0.0
1 -6.63866455737079519e+01 0.0 0.0
1 -4.18458570915756756e+00 0.0 0.0
8
Step 690
1 -3.18546698452586918e+00 0.0 0.0
1 7.78847924389957029e+01 0.0 0.0
1 2.84280015608411274e+00 0.0 0.0
1 -4.76548839854567348e+01 0.0 0.0
1 -1.28110901917764366e+01 0.0 0.0
1 6.51297219781286607e+00 0.0 0.0
1 -6.40436352892327960e+01 0.0 0.0
1 -5.88526570848779507e+00 0.0 0.0
8
Step 700
1 1.59986550744893519e+00 0.0 0.0
1 6.68865144103469049e+01 0.0 0.0
1 3.55011586177575111e+00 0.0 0.0
1 -5.31244672512483689e+01 0.0 0.0
1 -7.14959206380441703e+00 0.0 0.0
1 1.43625329092120779e+01 0.0 0.0
1 -6.12049370059063591e+01 0.0 0.0
1 -7.28795121729041728e+00 0.0 0.0
8
Step 710
1 6.01931459665860658e+00 0.0 0.0
1 5.53227535096347793e+01 0.0 0.0
1 4.20572046812394884e+00 0.0 0.0
1 -5.78830294482131293e+01 0.0 0.0
1 -1.63742029714161008e+00 0.0 0.0
1 2.18042783114980558e+01 0.0 0.0
1 -5.79028204119674186e+01 0.0 0.0
1 -8.33886454030341362e+00 0.0 0.0
8
Step 720
1 1.00609716964414080e+01 0.0 0.0
1 4.33113928584695032e+01 0.0 0.0
1 4.80741844418859454e+00 0.0 0.0
1 -6.18882828852664346e+01 0.0 0.0
1 3.69270838063877171e+00 0.0 0.0
1 2.87407572693702988e+01 0.0 0.0
1 -5.41730237244524062e+01 0.0 0.0
1 -8.99081045087075204e+00 0.0 0.0
8
Step 730
1 1.37143917600213197e+01 0.0 0.0
1 3.09757411582719087e+01 0.0 0.0
1 5.35546497535664567e+00 0.0 0.0
1 -6.51078400224318301e+01 0.0 0.0
1 8.80924061360133059e+00 0.0 0.0
1 3.50799546510448508e+01 0.0 0.0
1 -5.00544112757854833e+01 0.0 0.0
1 -9.20411575422905237e+00 0.0 0.0
8
Step 740
1 1.69710834909988932e+01 0.0 0.0
1 1.84421285312009182e+01 0.0 0.0
1 5.85259938469154761e+00 0.0 0.0
1 -6.75189727856732844e+01 0.0 0.0
1 1.36820662610036088e+01 0.0 0.0
1 4.07365449824224868e+01 0.0 0.0
1 -4.55886233721683638e+01 0.0 0.0
1 -8.94756332920852238e+00 0.0 0.0
8
Step 750
1 1.98250882382626799e+01 0.0 0.0
1 5.83768071855156467e+00 0.0 0.0
1 6.30394315183779952e+00 0.0 0.0
1 -6.91084583107555943e+01 0.0 0.0
1 1.82828509243487076e+01 0.0 0.0
1 4.56330660364537692e+01 0.0 0.0
1 -4.08197111966506654e+01 0.0 0.0
1 -8.19921979504326615e+00 0.0 0.0
8
Step 760
1 2.22735116567731737e+01 0.0 0.0
1 -6.71164601148978068e+00 0.0 0.0
1 6.71677425813066087e+00 0.0 0.0
1 -6.98725504713917758e+01 0.0 0.0
1 2.25854348764839798e+01 0.0 0.0
1 4.97010058406085093e+01 0.0 0.0
1 -3.57937511764092662e+01 0.0 0.0
1 -6.94708065845795630e+00 0.0 0.0
8
Step 770
1 2.43169337038729800e+01 0.0 0.0
1 -1.90827531607362388e+01 0.0 0.0
1 7.10020079725496167e+00 0.0 0.0
1 -6.98170672364738749e+01 0.0 0.0
1 2.65662827406931363e+01 0.0 0.0
1 5.28817985299123094e+01 0.0 0.0
1 -3.05584358888282566e+01 0.0 0.0
1 -5.18948543140540153e+00 0.0 0.0
8
Step 780
1 2.59596668660057439e+01 0.0 0.0
1 -3.11568357513319931e+01 0.0 0.0
1 7.46476629115149315e+00 0.0 0.0
1 -6.89575450683740030e+01 0.0 0.0
1 3.02049425409913326e+01 0.0 0.0
1 5.51277218484547191e+01 0.0 0.0
1 -2.51626416233152703e+01 0.0 0.0
1 -2.93527892698525372e+00 0.0 0.0
8
Step 790
1 2.72098612541538962e+01 0.0 0.0
1 -4.28206116018448526e+01 0.0 0.0
1 7.82202414830291293e+00 0.0 0.0
1 -6.73193868353093592e+01 0.0 0.0
1 3.34844628648103253e+01 0.0 0.0
1 5.64026822888259503e+01 0.0 0.0
1 -1.96559759558181568e+01 0.0 0.0
1 -2.03714211145077817e-01 0.0 0.0
8
Step 800
1 2.80794718476087866e+01 0.0 0.0
1 -5.39673966792966411e+01 0.0 0.0
1 8.18411571235088786e+00 0.0 0.0
1 -6.49379198322717599e+01 0.0 0.0
1 3.63917248968403797e+01 0.0 0.0
1 5.66828661074879108e+01 0.0 0.0
1 -1.40883117743471278e+01 0.0 0.0
1 2.97589076181129863e+00 0.0 0.0
8
Step 810
1 2.85841093607771768e+01 0.0 0.0
1 -6.44980712075321492e+01 0.0 0.0
1 8.56337482759684399e+00 0.0 0.0
1 -6.18582850944910163e+01 0.0 0.0
1 3.89176653125429581e+01 0.0 0.0
1 5.59572307594054834e+01 0.0 0.0
1 -8.50931648596189483e+00 0.0 0.0
1 6.56471747070237388e+00 0.0 0.0
8
Step 820
1 2.87427932102457788e+01 0.0 0.0
1 -7.43219621071837508e+01 0.0 0.0
1 8.97196589265488598e+00 0.0 0.0
1 -5.81350970004569874e+01 0.0 0.0
1 4.10573865559425002e+01 0.0 0.0
1 5.42278154406510993e+01 0.0 0.0
1 -2.96798601343381652e+00 0.0 0.0
1 1.05151985653530726e+01 0.0 0.0
8
Step 830
1 2.85776160861654418e+01 0.0 0.0
1 -8.33576439796263315e+01 0.0 0.0
1 9.42154880769554737e+00 0.0 0.0
1 -5.38318399062454489e+01 0.0 0.0
1 4.28101652475421588e+01 0.0 0.0
1 5.15098610742564773e+01 0.0 0.0
1 2.48780759949137487e+00 0.0 0.0
1 1.47719217208443556e+01 0.0 0.0
8
Step 840
1 2.81133203770758513e+01 0.0 0.0
1 -9.15336422170147728e+01 0.0 0.0
1 9.92295841396333245e+00 0.0 0.0
1 -4.90200001007215249e+01 0.0 0.0
1 4.41793748237490576e+01 0.0 0.0
1 4.78317444049790979e+01 0.0 0.0
1 7.81174830566767042e+00 0.0 0.0
1 1.92726543895153206e+01 0.0 0.0
8
Step 850
1 2.73767832585697448e+01 0.0 0.0
1 -9.87890150041825166e+01 0.0 0.0
1 1.04858888654419626e+01 0.0 0.0
1 -4.37779592352106377e+01 0.0 0.0
1 4.51723371275416028e+01 0.0 0.0
1 4.32347414321564258e+01 0.0 0.0
1 1.29594839759843339e+01 0.0 0.0
1 2.39494658368664233e+01 0.0 0.0
8
Step 860
1 2.63964128876097561e+01 0.0 0.0
1 -1.05073797663941093e+02 0.0 0.0
1 1.11185815941793340e+01 0.0 0.0
1 -3.81896938772925623e+01 0.0 0.0
1 4.58001139860064086e+01 0.0 0.0
1 3.77726380393640966e+01 0.0 0.0
1 1.78890086408840148e+01 0.0 0.0
1 2.87299306796362330e+01 0.0 0.0
8
Step 870
1 2.52014713629604898e+01 0.0 0.0
1 -1.10349308370493617e+02 0.0 0.0
1 1.18275244872353742e+01 0.0 0.0
1 -3.23433333878546350e+01 0.0 0.0
1 4.60772478550393814e+01 0.0 0.0
1 3.15112006047041149e+01 0.0 0.0
1 2.25610189391996521e+01 0.0 0.0
1 3.35384027144308661e+01 0.0 0.0
8
Step 880
1 2.38213557460348753e+01 0.0 0.0
1 -1.14588330163591237e+02 0.0 0.0
1 1.26171762090792203e+01 0.0 0.0
1 -2.63296272077121394e+01 0.0 0.0
1 4.60214621803110262e+01 0.0 0.0
1 2.45275104697258612e+01 0.0 0.0
1 2.69392445720084375e+01 0.0 0.0
1 3.82973462608126738e+01 0.0 0.0
8
Step 890
1 2.22848807675107032e+01 0.0 0.0
1 -1.17775192242414789e+02 0.0 0.0
1 1.34897320162331429e+01 0.0 0.0
1 -2.02403669036888374e+01 0.0 0.0
1 4.56533363339152487e+01 0.0 0.0
1 1.69091583953125557e+01 0.0 0.0
1 3.09907510259703649e+01 0.0 0.0
1 4.29287033835494753e+01 0.0 0.0
8
Step 900
1 2.06196123353229126e+01 0.0 0.0
1 -1.19905769535769423e+02 0.0 0.0
1 1.44449460323160057e+01 0.0 0.0
1 -1.41668016182271757e+01 0.0 0.0
1 4.49959740972728923e+01 0.0 0.0
1 8.75329211695254372e+00 0.0 0.0
1 3.46862102874454550e+01 0.0 0.0
1 4.73552609824909823e+01 0.0 0.0
8
Step 910
1 1.88512987800131988e+01 0.0 0.0
1 -1.20987404711581675e+02 0.0 0.0
1 1.54800202290721138e+01 0.0 0.0
1 -8.19808013710263062e+00 0.0 0.0
1 4.40746855726936744e+01 0.0 0.0
1 1.65512724583107840e-01 0.0 0.0
1 3.80001325507956977e+01 0.0 0.0
1 5.15019671273087454e+01 0.0 0.0
8
Step 920
1 1.70034376032443220e+01 0.0 0.0
1 -1.21038736743932944e+02 0.0 0.0
1 1.65895628245689686e+01 0.0 0.0
1 -2.41974951258932247e+00 0.0 0.0
1 4.29166981364948370e+01 0.0 0.0
1 -8.74137765200849692e+00 0.0 0.0
1 4.09110501702812286e+01 0.0 0.0
1 5.52971388616508364e+01 0.0 0.0
8
Step 930
1 1.50970004628702199e+01 0.0 0.0
1 -1.20089402957730655e+02 0.0 0.0
1 1.77656097222269906e+01 0.0 0.0
1 3.08766096681906310e+00 0.0 0.0
1 4.15509027022343602e+01 0.0 0.0
1 -1.78487659733065023e+01 0.0 0.0
1 4.34016454497739801e+01 0.0 0.0
1 5.86735109177171026e+01 0.0 0.0
8
Step 940
1 1.31503200808578651e+01 0.0 0.0
1 -1.18179574850610763e+02 0.0 0.0
1 1.89976945675515658e+01 0.0 0.0
1 8.24994121993905694e+00 0.0 0.0
1 4.00076295214844961e+01 0.0 0.0
1 -2.70337373806093950e+01 0.0 0.0
1 4.54588168914717841e+01 0.0 0.0
1 6.15690981703931826e+01 0.0 0.0
8
Step 950
1 1.11791231712823880e+01 0.0 0.0
1 -1.15359296068048565e+02 0.0 0.0
1 2.02729493059742474e+01 0.0 0.0
1 1.30003568723197791e+01 0.0 0.0
1 3.83184368108054088e+01 0.0 0.0
1 -3.61706777612309907e+01 0.0 0.0
1 4.70736837292405852e+01 0.0 0.0
1 6.39278781609114972e+01 0.0 0.0
8
Step 960
1 9.19667822185523676e+00 0.0 0.0
1 -1.11687611642439663e+02 0.0 0.0
1 2.15762198499255682e+01 0.0 0.0
1 1.72806300220281166e+01 0.0 0.0
1 3.65158890657683202e+01 0.0 0.0
1 -4.51329390774730399e+01 0.0 0.0
1 4.82415343234757685e+01 0.0 0.0
1 6.57003314749259175e+01 0.0 0.0
8
Step 970
1 7.21402018184003424e+00 0.0 0.0
1 -1.07231503232206393e+02 0.0 0.0
1 2.28901896364266406e+01 0.0 0.0
1 2.10417154995952380e+01 0.0 0.0
1 3.46333012161463145e+01 0.0 0.0
1 -5.37945329834554258e+01 0.0 0.0
1 4.89617282614598892e+01 0.0 0.0
1 6.68438951993115325e+01 0.0 0.0
8
Step 980
1 5.24021676224461608e+00 0.0 0.0
1 -1.02064666160117270e+02 0.0 0.0
1 2.41955137165292911e+01 0.0 0.0
1 2.42443502298202063e+01 0.0 0.0
1 3.27044284857266518e+01 0.0 0.0
1 -6.20318167455556093e+01 0.0 0.0
1 4.92375634486334306e+01 0.0 0.0
1 6.73233828684826818e+01 0.0 0.0
8
Step 990
1 3.28265027481653426e+00 0.0 0.0
1 -9.62661744627794889e+01 0.0 0.0
1 2.54709733273617474e+01 0.0 0.0
1 2.68593654432753581e+01 0.0 0.0
1 3.07630877304771069e+01 0.0 0.0
1 -6.97251378137132320e+01 0.0 0.0
1 4.90761180836882644e+01 0.0 0.0
1 6.71114065429686661e+01 0.0 0.0
8
Step 1000
1 1.34729988149818980e+00 0.0 0.0
1 -8.99190795859294809e+01 0.0 0.0
1 2.66936633709994524e+01 0.0 0.0
1 2.88677692140777289e+01 0.0 0.0
1 2.88427030478793007e+01 0.0 0.0
1 -7.67604110339587891e+01 0.0 0.0
1 4.84880742898310899e+01 0.0 0.0
1 6.61888112372405288e+01 0.0 0.0
8
Step 1010
1 -5.60982383657316119e-01 0.0 0.0
1 -8.31089808361396365e+01 0.0 0.0
1 2.78392232289982893e+01 0.0 0.0
1 3.02606273464122033e+01 0.0 0.0
1 2.69757770443081846e+01 0.0 0.0
1 -8.30306152163682185e+01 0.0 0.0
1 4.74875267991523557e+01 0.0 0.0
1 6.45451071805993593e+01 0.0 0.0
8
Step 1020
1 -2.43820440108719527e+00 0.0 0.0
1 -7.59225965735549835e+01 0.0 0.0
1 2.88821168583832595e+01 0.0 0.0
1 3.10387884940125076e+01 0.0 0.0
1 2.51932998269012423e+01 0.0 0.0
1 -8.84372102075458031e+01 0.0 0.0
1 4.60917776205043950e+01 0.0 0.0
1 6.21788670771766618e+01 0.0 0.0
8
Step 1030
1 -4.28097832240997889e+00 0.0 0.0
1 -6.84463587364238464e+01 0.0 0.0
1 2.97959632440972833e+01 0.0 0.0
1 3.12125079234215654e+01 0.0 0.0
1 2.35241193596549003e+01 0.0 0.0
1 -9.28914852690844413e+01 0.0 0.0
1 4.43211165915911636e+01 0.0 0.0
1 5.90980464538053241e+01 0.0 0.0
8
Step 1040
1 -6.08628212103930810e+00 0.0 0.0
1 -6.07650521470512004e+01 0.0 0.0
1 3.05539143503736632e+01 0.0 0.0
1 3.08010188253569375e+01 0.0 0.0