8
Step 0
1 1.39748825551200468e+01 0.0 0.0
1 5.42081696338564996e+01 0.0 0.0
1 -4.12502637145741176e+01 0.0 0.0
1 6.76856145659056949e+01 0.0 0.0
1 -9.52436813211538436e+01 0.0 0.0
1 -3.53785538339906509e+01 0.0 0.0
1 -1.69244962808761841e+01 0.0 0.0
1 8.98277443199455661e+00 0.0 0.0
8
Step 10
1 2.47708018071806997e+01 0.0 0.0
1 4.92812692361364739e+01 0.0 0.0
1 -3.10563193763445042e+01 0.0 0.0
1 6.75674160440276808e+01 0.0 0.0
1 -9.63560794110062488e+01 0.0 0.0
1 -4.13929055364003702e+01 0.0 0.0
1 -1.11787379092793309e+01 0.0 0.0
1 1.15365753892387151e+01 0.0 0.0
8
Step 20
1 3.48055702569173349e+01 0.0 0.0
1 4.45051791028596710e+01 0.0 0.0
1 -2.03589223456762092e+01 0.0 0.0
1 6.62474260777967316e+01 0.0 0.0
1 -9.58108697813230918e+01 0.0 0.0
1 -4.63793679731886073e+01 0.0 0.0
1 -4.60153848417346367e+00 0.0 0.0
1 1.36890264736870293e+01 0.0 0.0
8
Step 30
1 4.40069912524910265e+01 0.0 0.0
1 3.98975559830830875e+01 0.0 0.0
1 -9.25985391225965770e+00 0.0 0.0
1 6.37467319550392446e+01 0.0 0.0
1 -9.36263176487291133e+01 0.0 0.0
1 -5.02815815619831596e+01 0.0 0.0
1 2.72280925638629290e+00 0.0 0.0
1 1.53645803800491922e+01 0.0 0.0
8
Step 40
1 5.23161682479718166e+01 0.0 0.0
1 3.54724961722534005e+01 0.0 0.0
1 2.13257758680125420e+00 0.0 0.0
1 6.01068489148935683e+01 0.0 0.0
1 -8.98475738741497025e+01 0.0 0.0
1 -5.30613351139193199e+01 0.0 0.0
1 1.06982264714411635e+01 0.0 0.0
1 1.64931332463115297e+01 0.0 0.0
8
Step 50
1 5.96878009451353932e+01 0.0 0.0
1 3.12405454786970118e+01 0.0 0.0
1 1.37046821962769858e+01 0.0 0.0
1 5.53889249909403318e+01 0.0 0.0
1 -8.45459202270793071e+01 0.0 0.0
1 -5.46988531428703837e+01 0.0 0.0
1 1.92180738004346239e+01 0.0 0.0
1 1.70114489799567394e+01 0.0 0.0
8
Step 60
1 6.60903517665381344e+01 0.0 0.0
1 2.72087317814705685e+01 0.0 0.0
1 2.53386479040902763e+01 0.0 0.0
1 4.96726689107224857e+01 0.0 0.0
1 -7.78176699435729944e+01 0.0 0.0
1 -5.51928592289437674e+01 0.0 0.0
1 2.81665228824222069e+01 0.0 0.0
1 1.68645560553298246e+01 0.0 0.0
8
Step 70
1 7.15060835391014251e+01 0.0 0.0
1 2.33806168914835517e+01 0.0 0.0
1 3.69139310306457418e+01 0.0 0.0
1 4.30549874853167296e+01 0.0 0.0
1 -6.97827006854118252e+01 0.0 0.0
1 -5.45604025323937520e+01 0.0 0.0
1 3.74200874556477672e+01 0.0 0.0
1 1.60070906209596480e+01 0.0 0.0
8
Step 80
1 7.59309583284192797e+01 0.0 0.0
1 1.97563679450427117e+01 0.0 0.0
1 4.83087846777070951e+01 0.0 0.0
1 3.56483174549434949e+01 0.0 0.0
1 -6.05825930339594194e+01 0.0 0.0
1 -5.28364254870871832e+01 0.0 0.0
1 4.68493229911266695e+01 0.0 0.0
1 1.44045495779568640e+01 0.0 0.0
8
Step 90
1 7.93743794042450475e+01 0.0 0.0
1 1.63328516066473561e+01 0.0 0.0
1 5.94019185643796206e+01 0.0 0.0
1 2.75786426575699259e+01 0.0 0.0
1 -5.03783532797293674e+01 0.0 0.0
1 -5.00730469789131689e+01 0.0 0.0
1 5.63206935947886720e+01 0.0 0.0
1 1.20344087182585309e+01 0.0 0.0
8
Step 100
1 8.18587548095507458e+01 0.0 0.0
1 1.31037565260926634e+01 0.0 0.0
1 7.00742669646789267e+01 0.0 0.0
1 1.89832005408421054e+01 0.0 0.0
1 -3.93477146769913446e+01 0.0 0.0
1 -4.63385382580546548e+01 0.0 0.0
1 6.56985903657509027e+01 0.0 0.0
1 8.88705589664141016e+00 0.0 0.0
8
Step 110
1 8.34188627576161252e+01 0.0 0.0
1 1.00597505005543209e+01 0.0 0.0
1 8.02108244128318972e+01 0.0 0.0
1 1.00079010737141356e+01 0.0 0.0
1 -2.76820350684466483e+01 0.0 0.0
1 -4.17159787217707034e+01 0.0 0.0
1 7.48474684975363118e+01 0.0 0.0
1 4.96648905355606196e+00 0.0 0.0
8
Step 120
1 8.41010060981821965e+01 0.0 0.0
1 7.18867851430429550e+00 0.0 0.0
1 8.97024938906010334e+01 0.0 0.0
1 8.04503542019552209e-01 0.0 0.0
1 -1.55828378704125772e+01 0.0 0.0
1 -3.63015946579729629e+01 0.0 0.0
1 8.36340536667657091e+01 0.0 0.0
1 2.90734557174119335e-01 0.0 0.0
8
Step 130
1 8.39619545329723564e+01 0.0 0.0
1 4.47580632933835787e+00 0.0 0.0
1 9.84478817682557121e+01 0.0 0.0
1 -8.47238074433475497e+00 0.0 0.0
1 -3.25807372076439883e+00 0.0 0.0
1 -3.02028040918289769e+01 0.0 0.0
1 9.19295543581591517e+01 0.0 0.0
1 -5.10804723528403226e+00 0.0 0.0
8
Step 140
1 8.30676875272602331e+01 0.0 0.0
1 1.90411182197335371e+00 0.0 0.0
1 1.06354969718474749e+02 0.0 0.0
1 -1.76683726915028423e+01 0.0 0.0
1 9.08179300613243967e+00 0.0 0.0
1 -2.35360122371942353e+01 0.0 0.0
1 9.96118081447523878e+01 0.0 0.0
1 -1.11837860823480089e+01 0.0 0.0
8
Step 150
1 8.14919658466427848e+01 0.0 0.0
1 -5.45376808125450085e-01 0.0 0.0
1 1.13342597143688749e+02 0.0 0.0
1 -2.66323969792069484e+01 0.0 0.0
1 2.12277494730298564e+01 0.0 0.0
1 -1.64242215549507620e+01 0.0 0.0
1 1.06567288281716458e+02 0.0 0.0
1 -1.78770533938740677e+01 0.0 0.0
8
Step 160
1 7.93147730753206588e+01 0.0 0.0
1 -2.89320001849606712e+00 0.0 0.0
1 1.19341698207121354e+02 0.0 0.0
1 -3.52196376815445191e+01 0.0 0.0
1 3.29761199786176178e+01 0.0 0.0
1 -8.99453507335241476e+00 0.0 0.0
1 1.12692902920922378e+02 0.0 0.0
1 -2.51159194120852121e+01 0.0 0.0
8
Step 170
1 7.66206783153952955e+01 0.0 0.0
1 -5.16104999473876624e+00 0.0 0.0
1 1.24296254038201909e+02 0.0 0.0
1 -4.32942807771765601e+01 0.0 0.0
1 4.41322448507824703e+01 0.0 0.0
1 -1.37563917253291490e+00 0.0 0.0
1 1.17897532227608480e+02 0.0 0.0
1 -3.28170769266552966e+01 0.0 0.0
8
Step 180
1 7.34971761031663391e+01 0.0 0.0
1 -7.37132681704393011e+00 0.0 0.0
1 1.28163940848031331e+02 0.0 0.0
1 -5.07319614205245415e+01 0.0 0.0
1 5.45138420781379338e+01 0.0 0.0
1 6.30464863256585417e+00 0.0 0.0
1 1.22103266951845256e+02 0.0 0.0
1 -4.08871796558851486e+01 0.0 0.0
8
Step 190
1 7.00330588316152216e+01 0.0 0.0
1 -9.54667786624776404e+00 0.0 0.0
1 1.30916475744030635e+02 0.0 0.0
1 -5.74218556817288928e+01 0.0 0.0
1 6.39539671919155523e+01 0.0 0.0
1 1.39216900280673297e+01 0.0 0.0
1 1.25246333013106010e+02 0.0 0.0
1 -4.92243368443980316e+01 0.0 0.0
8
Step 200
1 6.63168709737318949e+01 0.0 0.0
1 -1.17095307405651567e+01 0.0 0.0
1 1.32539681132239480e+02 0.0 0.0
1 -6.32683819107811658e+01 0.0 0.0
1 7.23035186748429055e+01 0.0 0.0
1 2.13561326195373233e+01 0.0 0.0
1 1.27277707471864943e+02 0.0 0.0
1 -5.77197058043253790e+01 0.0 0.0
8
Step 210
1 6.24354842901132727e+01 0.0 0.0
1 -1.38816292077475101e+01 0.0 0.0
1 1.33033303346016339e+02 0.0 0.0
1 -6.81925023730162394e+01 0.0 0.0
1 7.94332690478962888e+01 0.0 0.0
1 2.84957705228122933e+01 0.0 0.0
1 1.28163449128733845e+02 0.0 0.0
1 -6.62591305539590394e+01 0.0 0.0
8
Step 220
1 5.84728206411428815e+01 0.0 0.0
1 -1.60835803769794872e+01 0.0 0.0
1 1.32410629968874133e+02 0.0 0.0
1 -7.21326380350302117e+01 0.0 0.0
1 8.52354313395555607e+01 0.0 0.0
1 3.52371367710852965e+01 0.0 0.0
1 1.27884779776515629e+02 0.0 0.0
1 -7.47247859347963725e+01 0.0 0.0
8
Step 230
1 5.45087358712210275e+01 0.0 0.0
1 -1.83344196972172675e+01 0.0 0.0
1 1.30697952661624669e+02 0.0 0.0
1 -7.50452258526532177e+01 0.0 0.0
1 8.96247933400741061e+01 0.0 0.0
1 4.14868244015052525e+01 0.0 0.0
1 1.26437958628154860e+02 0.0 0.0
1 -8.29968005350179965e+01 0.0 0.0
8
Step 240
1 5.06180662199334037e+01 0.0 0.0
1 -2.06511989346051301e+01 0.0 0.0
1 1.27933918578826237e+02 0.0 0.0
1 -7.69049572589336208e+01 0.0 0.0
1 9.25394657313752305e+01 0.0 0.0
1 4.71625482440461283e+01 0.0 0.0
1 1.23833992471289321e+02 0.0 0.0
1 -9.09548460974706785e+01 0.0 0.0
8
Step 250
1 4.68698291860110459e+01 0.0 0.0
1 -2.30486012495715933e+01 0.0 0.0
1 1.24168804878210551e+02 0.0 0.0
1 -7.77047386155373374e+01 0.0 0.0
1 9.39412942610889843e+01 0.0 0.0
1 5.21939694302762618e+01 0.0 0.0
1 1.20098218401319272e+02 0.0 0.0
1 -9.84796936657067334e+01 0.0 0.0
8
Step 260
1 4.33265645383449467e+01 0.0 0.0
1 -2.55385870724550941e+01 0.0 0.0
1 1.19463739106682311e+02 0.0 0.0
1 -7.74554100956724199e+01 0.0 0.0
1 9.38159814329225128e+01 0.0 0.0
1 5.65233089810575322e+01 0.0 0.0
1 1.15269785996750798e+02 0.0 0.0
1 -1.05454745777013372e+02 0.0 0.0
8
Step 270
1 4.00437984891275605e+01 0.0 0.0
1 -2.81300747178129384e+01 0.0 0.0
1 1.13889875308763848e+02 0.0 0.0
1 -7.61852505240534299e+01 0.0 0.0
1 9.21729516686745995e+01 0.0 0.0
1 6.01057758761861436e+01 0.0 0.0
1 1.09401053363744211e+02 0.0 0.0
1 -1.11767558407674883e+02 0.0 0.0
8
Step 280
1 3.70696146726870808e+01 0.0 0.0
1 -3.08286604962069291e+01 0.0 0.0
1 1.07527523413853629e+02 0.0 0.0
1 -7.39392842754718487e+01 0.0 0.0
1 8.90449782204672715e+01 0.0 0.0
1 6.29098297754205475e+01 0.0 0.0
1 1.02556898556548617e+02 0.0 0.0
1 -1.17311365643227546e+02 0.0 0.0
8
Step 290
1 3.44443188782284082e+01 0.0 0.0
1 -3.36363842699922131e+01 0.0 0.0
1 1.00465219438740164e+02 0.0 0.0
1 -7.07783947166056748e+01 0.0 0.0
1 8.44875732334306377e+01 0.0 0.0
1 6.49172905046281130e+01 0.0 0.0
1 9.48139363403341662e+01 0.0 0.0
1 -1.21986614365551858e+02 0.0 0.0
8
Step 300
1 3.22001895800024371e+01 0.0 0.0
1 -3.65515476566697401e+01 0.0 0.0
1 9.27987175469907868e+01 0.0 0.0
1 -6.67782389976375015e+01 0.0 0.0
1 7.85781271800506431e+01 0.0 0.0
1 6.61232972075269032e+01 0.0 0.0
1 8.62596217000862566e+01 0.0 0.0
1 -1.25702506384175067e+02 0.0 0.0
8
Step 310
1 3.03613121841021254e+01 0.0 0.0
1 -3.95685930608420477e+01 0.0 0.0
1 8.46298828545607762e+01 0.0 0.0
1 -6.20279530181727097e+01 0.0 0.0
1 7.14147729628614201e+01 0.0 0.0
1 6.65361113672258853e+01 0.0 0.0
1 7.69912171274945081e+01 0.0 0.0
1 -1.28378532652556572e+02 0.0 0.0
8
Step 320
1 2.89435005471930857e+01 0.0 0.0
1 -4.26780520667094905e+01 0.0 0.0
1 7.60654663955450019e+01 0.0 0.0
1 -5.66286343213285051e+01 0.0 0.0
1 6.31149452859728797e+01 0.0 0.0
1 6.61767512379355054e+01 0.0 0.0
1 6.71146012764637874e+01 0.0 0.0
1 -1.29945970153606112e+02 0.0 0.0
8
Step 330
1 2.79543137907258874e+01 0.0 0.0
1 -4.58665711574397932e+01 0.0 0.0
1 6.72157506843174843e+01 0.0 0.0
1 -5.06915950586605888e+01 0.0 0.0
1 5.38136086217547884e+01 0.0 0.0
1 6.50784418060985104e+01 0.0 0.0
1 5.67429022553928561e+01 0.0 0.0
1 -1.30349298619897098e+02 0.0 0.0
8
Step 340
1 2.73931789889876143e+01 0.0 0.0
1 -4.91170210663213425e+01 0.0 0.0
1 5.81930651268102963e+01 0.0 0.0
1 -4.43363868157426779e+01 0.0 0.0
1 4.36611375001016384e+01 0.0 0.0
1 6.32858649985472752e+01 0.0 0.0
1 4.59949492030596048e+01 0.0 0.0
1 -1.29547483455210482e+02 0.0 0.0
8
Step 350
1 2.72516304690368720e+01 0.0 0.0
1 -5.24086932818856539e+01 0.0 0.0
1 4.91101839438607044e+01 0.0 0.0
1 -3.76886130260235390e+01 0.0 0.0
1 3.28208501415596956e+01 0.0 0.0
1 6.08541997124519298e+01 0.0 0.0
1 3.49935498405287149e+01 0.0 0.0
1 -1.27515064870314418e+02 0.0 0.0
8
Step 360
1 2.75136740715644130e+01 0.0 0.0
1 -5.57175834772950509e+01 0.0 0.0
1 4.00786336662759766e+01 0.0 0.0
1 -3.08775612682858771e+01 0.0 0.0
1 2.14662188365085385e+01 0.0 0.0
1 5.78479499994270157e+01 0.0 0.0
1 2.38636178159188397e+01 0.0 0.0
1 -1.24242992739902334e+02 0.0 0.0
8
Step 370
1 2.81562799928103331e+01 0.0 0.0
1 -5.90167572397132005e+01 0.0 0.0
1 3.12069507986537253e+01 0.0 0.0
1 -2.40337047707765308e+01 0.0 0.0
1 9.77780527226734719e+00 0.0 0.0
1 5.43395714474379545e+01 0.0 0.0
1 1.27301898769021662e+01 0.0 0.0
1 -1.19739152752326433e+02 0.0 0.0
8
Step 380
1 2.91500013190360114e+01 0.0 0.0
1 -6.22767889050646346e+01 0.0 0.0
1 2.25989410814441101e+01 0.0 0.0
1 -1.72861375449187165e+01 0.0 0.0
1 -2.06000697941779176e+00 0.0 0.0
1 5.04079190329013258e+01 0.0 0.0
1 1.71638708382893190e+00 0.0 0.0
1 -1.14028541911781545e+02 0.0 0.0
8
Step 390
1 3.04597079217079632e+01 0.0 0.0
1 -6.54662601026275013e+01 0.0 0.0
1 1.43519983412244354e+01 0.0 0.0
1 -1.07600185009953382e+01 0.0 0.0
1 -1.38623906695682280e+01 0.0 0.0
1 4.61365527275689615e+01 0.0 0.0
1 -9.05861555606320046e+00 0.0 0.0
1 -1.07153069280181128e+02 0.0 0.0
8
Step 400
1 3.20454180115314884e+01 0.0 0.0
1 -6.85523013223881321e+01 0.0 0.0
1 6.55554218454994597e+00 0.0 0.0
1 -4.57410493424753462e+00 0.0 0.0
1 -2.54474586215204184e+01 0.0 0.0
1 4.16119481708659436e+01 0.0 0.0
1 -1.94815419831881655e+01 0.0 0.0
1 -9.91709790897639181e+01 0.0 0.0
8
Step 410
1 3.38632033623345237e+01 0.0 0.0
1 -7.15011578794735385e+01 0.0 0.0
1 -7.10370526017746973e-01 0.0 0.0
1 1.16154598365474171e+00 0.0 0.0
1 -3.66395437062930185e+01 0.0 0.0
1 3.69216672414506419e+01 0.0 0.0
1 -2.94468230303148850e+01 0.0 0.0
1 -9.01559155163261892e+01 0.0 0.0
8
Step 420
1 3.58661398524441779e+01 0.0 0.0
1 -7.42787613274675351e+01 0.0 0.0
1 -7.37621485677786559e+00 0.0 0.0
1 6.34763751460960179e+00 0.0 0.0
1 -4.72722710517774090e+01 0.0 0.0
1 3.21525463737857748e+01 0.0 0.0
1 -3.88581996103165253e+01 0.0 0.0
1 -8.01956687862758741e+01 0.0 0.0
8
Step 430
1 3.80052730650168300e+01 0.0 0.0
1 -7.68512886935973540e+01 0.0 0.0
1 -1.33839152966722104e+01 0.0 0.0
1 1.08973993151408184e+01 0.0 0.0
1 -5.71913325627389781e+01 0.0 0.0
1 2.73889586352561309e+01 0.0 0.0
1 -4.76300741014912177e+01 0.0 0.0
1 -6.93906584597337570e+01 0.0 0.0
8
Step 440
1 4.02305693917600280e+01 0.0 0.0
1 -7.91856946565989972e+01 0.0 0.0
1 -1.86874944861047716e+01 0.0 0.0
1 1.47380206648637877e+01 0.0 0.0
1 -6.62568946496291460e+01 0.0 0.0
1 2.27111992946948540e+01 0.0 0.0
1 -5.56885790345059988e+01 0.0 0.0
1 -5.78522199031251105e+01 0.0 0.0
8
Step 450
1 4.24918261688805217e+01 0.0 0.0
1 -8.12502055427904679e+01 0.0 0.0
1 -2.32534515054518600e+01 0.0 0.0
1 1.78117317441474725e+01 0.0 0.0
1 -7.43455947675450091e+01 0.0 0.0
1 1.81940348881699876e+01 0.0 0.0
1 -6.29723496267785734e+01 0.0 0.0
1 -4.57007632894462574e+01 0.0 0.0
8
Step 460
1 4.47395192972027047e+01 0.0 0.0
1 -8.30147682345918412e+01 0.0 0.0
1 -2.70608817412545477e+01 0.0 0.0
1 2.00765319449588979e+01 0.0 0.0
1 -8.13521077220595430e+01 0.0 0.0
1 1.39054440576268910e+01 0.0 0.0
1 -6.94330033140115717e+01 0.0 0.0
1 -3.30638711283362099e+01 0.0 0.0
8
Step 470
1 4.69255728103865977e+01 0.0 0.0
1 -8.44514511971604378e+01 0.0 0.0
1 -3.01013609238701214e+01 0.0 0.0
1 2.15065794341352614e+01 0.0 0.0
1 -8.71902856670572532e+01 0.0 0.0
1 9.90556628856673171e+00 0.0 0.0
1 -7.50353433739610836e+01 0.0 0.0
1 -2.00743914573399600e+01 0.0 0.0
8
Step 480
1 4.90040411313047031e+01 0.0 0.0
1 -8.55347983241306622e+01 0.0 0.0
1 -3.23786225787823199e+01 0.0 0.0
1 2.20922671106382893e+01 0.0 0.0
1 -9.17938939295940060e+01 0.0 0.0
1 6.24586356596273973e+00 0.0 0.0
1 -7.97573137752473542e+01 0.0 0.0
1 -6.86857123094230104e+00 0.0 0.0
8
Step 490
1 5.09317005323676355e+01 0.0 0.0
1 -8.62421388092219701e+01 0.0 0.0
1 -3.39080607116224186e+01 0.0 0.0
1 2.18400161717570676e+01 0.0 0.0
1 -9.51169768576248913e+01 0.0 0.0
1 2.96849101502875357e+00 0.0 0.0
1 -8.35897379728563976e+01 0.0 0.0
1 6.41573973305234535e+00 0.0 0.0
8
Step 500
1 5.26685509989739558e+01 0.0 0.0
1 -8.65538575734801867e+01 0.0 0.0
1 -3.47160885175365124e+01 0.0 0.0
1 2.07718199924240920e+01 0.0 0.0
1 -9.71338934948130657e+01 0.0 0.0
1 1.05866421744801487e-01 0.0 0.0
1 -8.65358756759529655e+01 0.0 0.0
1 1.96407975477751293e+01 0.0 0.0
8
Step 510
1 5.41782329362464026e+01 0.0 0.0
1 -8.64536309164855510e+01 0.0 0.0
1 -3.48393801823710518e+01 0.0 0.0
1 1.89245688431755994e+01 0.0 0.0
1 -9.78390627302282070e+01 0.0 0.0
1 -2.31957475367629939e+00 0.0 0.0
1 -8.86108293787221442e+01 0.0 0.0
1 3.26705804837767673e+01 0.0 0.0
8
Step 520
1 5.54283648682676215e+01 0.0 0.0
1 -8.59286311833664911e+01 0.0 0.0
1 -3.43240175819079951e+01 0.0 0.0
1 1.63491814541437535e+01 0.0 0.0
1 -9.72464530781893046e+01 0.0 0.0
1 -4.29545299499603050e+00 0.0 0.0
1 -8.98408277963881972e+01 0.0 0.0
1 4.53723152743797584e+01 0.0 0.0
8
Step 530
1 5.63908086007453804e+01 0.0 0.0
1 -8.49697026440415470e+01 0.0 0.0
1 -3.32245580706897385e+01 0.0 0.0
1 1.31095640429345490e+01 0.0 0.0
1 -9.53888452516329153e+01 0.0 0.0
1 -5.81935997078127443e+00 0.0 0.0
1 -9.02624075589492918e+01 0.0 0.0
1 5.76179201481147132e+01 0.0 0.0
8
Step 540
1 5.70418675732081013e+01 0.0 0.0
1 -8.35715088329002782e+01 0.0 0.0
1 -3.16030346159599986e+01 0.0 0.0
1 9.28141251912984266e+00 0.0 0.0
1 -9.23168881035393696e+01 0.0 0.0
1 -6.89862622216824839e+00 0.0 0.0
1 -8.99215087894479410e+01 0.0 0.0
1 6.92853714059662593e+01 0.0 0.0
8
Step 550
1 5.73624227383043106e+01 0.0 0.0
1 -8.17326496737368160e+01 0.0 0.0
1 -2.95278960262135222e+01 0.0 0.0
1 4.95087020551854362e+00 0.0 0.0
1 -8.80979619974206116e+01 0.0 0.0
1 -7.54994976771852677e+00 0.0 0.0
1 -8.88724955024797509e+01 0.0 0.0
1 8.02599973475891915e+01 0.0 0.0
8
Step 560
1 5.73380087219065757e+01 0.0 0.0
1 -7.94557451531563146e+01 0.0 0.0
1 -2.70728933502346685e+01 0.0 0.0
1 2.13052196097105129e-01 0.0 0.0
1 -8.28148594576439621e+01 0.0 0.0
1 -7.79889227313073885e+00 0.0 0.0
1 -8.71771087356885772e+01 0.0 0.0
1 9.04356981707752681e+01 0.0 0.0
8
Step 570
1 5.69588316440461924e+01 0.0 0.0
1 -7.67474813613836488e+01 0.0 0.0
1 -2.43159187244229678e+01 0.0 0.0
1 -4.82955144623541166e+00 0.0 0.0
1 -7.65642917071625533e+01 0.0 0.0
1 -7.67924864284129516e+00 0.0 0.0
1 -8.49033592302096594e+01 0.0 0.0
1 9.97160843267452321e+01 0.0 0.0
8
Step 580
1 5.62197291270356487e+01 0.0 0.0
1 -7.36186145391794042e+01 0.0 0.0
1 -2.13378047461969977e+01 0.0 0.0
1 -1.00687783530571799e+01 0.0 0.0
1 -6.94552314959224333e+01 0.0 0.0
1 -7.23229636414027954e+00 0.0 0.0
1 -8.21243672058562453e+01 0.0 0.0
1 1.08015519925449482e+02 0.0 0.0
8
Step 590
1 5.51200728638509148e+01 0.0 0.0
1 -7.00839293788095148e+01 0.0 0.0
1 -1.82210953280866157e+01 0.0 0.0
1 -1.53925826069596035e+01 0.0 0.0
1 -6.16071069922160106e+01 0.0 0.0
1 -6.50593263401421762e+00 0.0 0.0
1 -7.89171589385413768e+01 0.0 0.0
1 1.15260053217529403e+02 0.0 0.0
8
Step 600
1 5.36636147047596879e+01 0.0 0.0
1 -6.61621491321234743e+01 0.0 0.0
1 -1.50488022778223733e+01 0.0 0.0
1 -2.06868848440661459e+01 0.0 0.0
1 -5.31478675695581444e+01 0.0 0.0
1 -5.55370995062446493e+00 0.0 0.0
1 -7.53614328446186050e+01 0.0 0.0
1 1.21388213724820446e+02 0.0 0.0
8
Step 610
1 5.18582784456039647e+01 0.0 0.0
1 -6.18757968843921518e+01 0.0 0.0
1 -1.19031648634939806e+01 0.0 0.0
1 -2.58374543939095531e+01 0.0 0.0
1 -4.42119489439411666e+01 0.0 0.0
1 -4.43378401248791487e+00 0.0 0.0
1 -7.15383109230215268e+01 0.0 0.0
1 1.26351655677494549e+02 0.0 0.0
8
Step 620
1 4.97159011592683839e+01 0.0 0.0
1 -5.72510093921304630e+01 0.0 0.0
1 -8.86443175206543721e+00 0.0 0.0
1 -3.07317908427008177e+01 0.0 0.0
1 -3.49381711181327503e+01 0.0 0.0
1 -3.20779091523667770e+00 0.0 0.0
1 -6.75290940398928683e+01 0.0 0.0
1 1.30115630068464895e+02 0.0 0.0
8
Step 630
1 4.72519297248951631e+01 0.0 0.0
1 -5.23173068598879851e+01 0.0 0.0
1 -6.00968552330321071e+00 0.0 0.0
1 -3.52609709684307262e+01 0.0 0.0
1 -2.54676069283251572e+01 0.0 0.0
1 -1.93967325865152729e+00 0.0 0.0
1 -6.34140411295309008e+01 0.0 0.0
1 1.32659272492508364e+02 0.0 0.0
8
Step 640
1 4.44850798787248252e+01 0.0 0.0
1 -4.71073236634451362e+01 0.0 0.0
1 -3.41172926773033058e+00 0.0 0.0
1 -3.93214277158701506e+01 0.0 0.0
1 -1.59414609242270355e+01 0.0 0.0
1 -6.94476468254122570e-01 0.0 0.0
1 -5.92711926048968110e+01 0.0 0.0
1 1.33975700319739957e+02 0.0 0.0
8
Step 650
1 4.14369663672100472e+01 0.0 0.0
1 -4.16565060921295398e+01 0.0 0.0
1 -1.13805264559021202e+00 0.0 0.0
1 -4.28166306849845242e+01 0.0 0.0
1 -6.49899751788675850e+00 0.0 0.0
1 4.62862841931323765e-01 0.0 0.0
1 -5.51752570434019489e+01 0.0 0.0
1 1.34071919780924958e+02 0.0 0.0
8
Step 660
1 3.81317134317479969e+01 0.0 0.0
1 -3.60027835504815883e+01 0.0 0.0
1 7.50108478564823988e-01 0.0 0.0
1 -4.56586420896686107e+01 0.0 0.0
1 2.72444607312014320e+00 0.0 0.0
1 1.46871532035827790e+00 0.0 0.0
1 -5.11965777071719614e+01 0.0 0.0
1 1.32968550279483537e+02 0.0 0.0
8
Step 670
1 3.45955548014544334e+01 0.0 0.0
1 -3.01862193091174404e+01 0.0 0.0
1 2.19860862022718617e+00 0.0 0.0
1 -4.77695276425326512e+01 0.0 0.0
1 1.15993320630320191e+01 0.0 0.0
1 2.26192471752093649e+00 0.0 0.0
1 -4.74001920406624606e+01 0.0 0.0
1 1.30699378847201643e+02 0.0 0.0
8
Step 680
1 3.08564316329589943e+01 0.0 0.0
1 -2.42486459164402390e+01 0.0 0.0
1 3.16111925813945494e+00 0.0 0.0
1 -4.90826075412183727e+01 0.0 0.0
1 2.00036562609885138e+01 0.0 0.0
1 2.78492412074631801e+00 0.0 0.0
1 -4.38449934576918352e+01 0.0 0.0
1 1.27310761500589962e+02 0.0 0.0
8
Step 690
1 2.69435955302574150e+01 0.0 0.0
1 -1.82332889595262202e+01 0.0 0.0
1 3.59974270106686367e+00 0.0 0.0
1 -4.95435378852607329e+01 0.0 0.0
1 2.78245279760821020e+01 0.0 0.0
1 2.98478831234760111e+00 0.0 0.0
1 -4.05830010151712415e+01 0.0 0.0
1 1.22860890007490667e+02 0.0 0.0
8
Step 700
1 2.28872220911002771e+01 0.0 0.0
1 -1.21843812391146891e+01 0.0 0.0
1 3.48551309721657532e+00 0.0 0.0
1 -4.91112167907309498e+01 0.0 0.0
1 3.49595858983184513e+01 0.0 0.0
1 2.81421055102356821e+00 0.0 0.0
1 -3.76587394483240132e+01 0.0 0.0
1 1.17418942247041258e+02 0.0 0.0
8
Step 710
1 1.87180385853198032e+01 0.0 0.0
1 -6.14676787139155678e+00 0.0 0.0
1 2.79878581481875299e+00 0.0 0.0
1 -4.77585117824413246e+01 0.0 0.0
1 4.13182451627927136e+01 0.0 0.0
1 2.23239411865183124e+00 0.0 0.0
1 -3.51087298609734901e+01 0.0 0.0
1 1.11064132259965291e+02 0.0 0.0
8
Step 720
1 1.44669676069517958e+01 0.0 0.0
1 -1.65501609800780103e-01 0.0 0.0
1 1.52951652263086668e+00 0.0 0.0
1 -4.54728056165614305e+01 0.0 0.0
1 4.68227738156218791e+01 0.0 0.0
1 1.20585023017758730e+00 0.0 0.0
1 -3.29610902992321684e+01 0.0 0.0
1 1.03884672805975569e+02 0.0 0.0
8
Step 730
1 1.01647870670141440e+01 0.0 0.0
1 5.71457298588129348e+00 0.0 0.0
1 -3.22569723495627625e-01 0.0 0.0
1 -4.22563567139231111e+01 0.0 0.0
1 5.14091977667239561e+01 0.0 0.0
1 -2.90905720872479900e-01 0.0 0.0
1 -3.12352454706819920e+01 0.0 0.0
1 9.59766594891209905e+01 0.0 0.0
8
Step 740
1 5.84180587565941600e+00 0.0 0.0
1 1.14492478639389681e+01 0.0 0.0
1 -2.74792089840674603e+00 0.0 0.0
1 -3.81264683355591103e+01 0.0 0.0
1 5.50280322008754723e+01 0.0 0.0
1 -2.27476803058808708e+00 0.0 0.0
1 -2.99417458058889601e+01 0.0 0.0
1 8.74428820457974041e+01 0.0 0.0
8
Step 750
1 1.52755420986164103e+00 0.0 0.0
1 1.69953927892298289e+01 0.0 0.0
1 -5.72721558731224079e+00 0.0 0.0
1 -3.31154581851960614e+01 0.0 0.0
1 5.76448348032760620e+01 0.0 0.0
1 -4.75357408324080755e+00 0.0 0.0
1 -2.90821975494642864e+01 0.0 0.0
1 7.83915659234527027e+01 0.0 0.0
8
Step 760
1 -2.74951258640481822e+00 0.0 0.0
1 2.23114085844150303e+01 0.0 0.0
1 -9.23154132620656398e+00 0.0 0.0
1 -2.72704180723614122e+01 0.0 0.0
1 5.92405727631211150e+01 0.0 0.0
1 -7.72576782520956318e+00 0.0 0.0
1 -2.86493071716857663e+01 0.0 0.0
1 6.89350463725937459e+01 0.0 0.0
8
Step 770
1 -6.96229670633319930e+00 0.0 0.0
1 2.73576890445192760e+01 0.0 0.0
1 -1.32227004984983676e+01 0.0 0.0
1 -2.06527524147917525e+01 0.0 0.0
1 5.98117922218471136e+01 0.0 0.0
1 -1.11802046843316614e+01 0.0 0.0
1 -2.86270446314079443e+01 0.0 0.0
1 5.91883782709992090e+01 0.0 0.0
8
Step 780
1 -1.10853262550688836e+01 0.0 0.0
1 3.20970856625561609e+01 0.0 0.0
1 -1.76536505670474959e+01 0.0 0.0
1 -1.33374853902545247e+01 0.0 0.0
1 5.93705765398629666e+01 0.0 0.0
1 -1.50961093501694563e+01 0.0 0.0
1 -2.89909304505220469e+01 0.0 0.0
1 4.92678878653350125e+01 0.0 0.0
8
Step 790
1 -1.50950069103517901e+01 0.0 0.0
1 3.64953665965997232e+01 0.0 0.0
1 -2.24690838661219381e+01 0.0 0.0
1 -5.41232993328526568e+00 0.0 0.0
1 5.79442792847146251e+01 0.0 0.0
1 -1.94431966836579910e+01 0.0 0.0
1 -2.97084508311752984e+01 0.0 0.0
1 3.92896773248597810e+01 0.0 0.0
8
Step 800
1 -1.89698529718316280e+01 0.0 0.0
1 4.05216588488202802e+01 0.0 0.0
1 -2.76061489622712557e+01 0.0 0.0
1 3.02348233866259974e+00 0.0 0.0
1 5.55750197990118053e+01 0.0 0.0
1 -2.41819634108661923e+01 0.0 0.0
1 -3.07396029674805931e+01 0.0 0.0
1 2.93680989433304873e+01 0.0 0.0
8
Step 810
1 -2.26906925675850033e+01 0.0 0.0
1 4.41488607781484603e+01 0.0 0.0
1 -3.29953108375685957e+01 0.0 0.0
1 1.18606030221447014e+01 0.0 0.0
1 5.23189338710379630e+01 0.0 0.0
1 -2.92641541026178622e+01 0.0 0.0
1 -3.20375692813365021e+01 0.0 0.0
1 1.96142222515016655e+01 0.0 0.0
8
Step 820
1 -2.62408408601511525e+01 0.0 0.0
1 4.73540111561061039e+01 0.0 0.0
1 -3.85613412259826660e+01 0.0 0.0
1 2.09811835829785949e+01 0.0 0.0
1 4.82451792931397705e+01 0.0 0.0
1 -3.46333994176245312e+01 0.0 0.0
1 -3.35495147729634553e+01 0.0 0.0
1 1.01343233184882191e+01 0.0 0.0
8
Step 830
1 -2.96062347642509032e+01 0.0 0.0
1 5.01186012355509831e+01 0.0 0.0
1 -4.42244239388366367e+01 0.0 0.0
1 3.02606791923568821e+01 0.0 0.0
1 4.34347054256928331e+01 0.0 0.0
1 -4.02260181038983333e+01 0.0 0.0
1 -3.52174964505209829e+01 0.0 0.0
1 1.02843020270631458e+00 0.0 0.0
8
Step 840
1 -3.27755230704822509e+01 0.0 0.0
1 5.24288178341536906e+01 0.0 0.0
1 -4.99013536950412373e+01 0.0 0.0
1 3.95698021402625173e+01 0.0 0.0
1 3.79788063897407895e+01 0.0 0.0
1 -4.59719674292031542e+01 0.0 0.0
1 -3.69794684738621342e+01 0.0 0.0
1 -7.61103895002156960e+00 0.0 0.0
8
Step 850
1 -3.57401069865418179e+01 0.0 0.0
1 5.42757081725328732e+01 0.0 0.0
1 -5.55068016197964340e+01 0.0 0.0
1 4.87765789201956679e+01 0.0 0.0
1 3.19774880325956907e+01 0.0 0.0
1 -5.17959202889821242e+01 0.0 0.0
1 -3.87703618723855570e+01 0.0 0.0
1 -1.57005088390364751e+01 0.0 0.0
8
Step 860
1 -3.84941278811841983e+01 0.0 0.0
1 5.56552609159291265e+01 0.0 0.0
1 -6.09546169095601229e+01 0.0 0.0
1 5.77484595970295373e+01 0.0 0.0
1 2.55376880993586930e+01 0.0 0.0
1 -5.76184419763833944e+01 0.0 0.0
1 -4.05232141045858896e+01 0.0 0.0
1 -2.31663177545481709e+01 0.0 0.0
8
Step 870
1 -4.10344012742334243e+01 0.0 0.0
1 5.65684021687815317e+01 0.0 0.0
1 -6.61591327037863692e+01 0.0 0.0
1 6.63544261776836350e+01 0.0 0.0
1 1.87713959545224114e+01 0.0 0.0
1 -6.33572361414571077e+01 0.0 0.0
1 -4.21703218124663266e+01 0.0 0.0
1 -2.99455987690236753e+01 0.0 0.0
8
Step 880
1 -4.33602986178325480e+01 0.0 0.0
1 5.70209095921806295e+01 0.0 0.0
1 -7.10364451905991103e+01 0.0 0.0
1 7.44670487064063593e+01 0.0 0.0
1 1.17937218766271474e+01 0.0 0.0
1 -6.89284282430775761e+01 0.0 0.0
1 -4.36443901627167250e+01 0.0 0.0
1 -3.59869520349584349e+01 0.0 0.0
8
Step 890
1 -4.54735808871309217e+01 0.0 0.0
1 5.70232518612965151e+01 0.0 0.0
1 -7.55056383078418918e+01 0.0 0.0
1 8.19644434804133084e+01 0.0 0.0
1 4.72096597071820678e+00 0.0 0.0
1 -7.42478559397030295e+01 0.0 0.0
1 -4.48796541634836075e+01 0.0 0.0
1 -4.12508981895266871e+01 0.0 0.0
8
Step 900
1 -4.73781901801009226e+01 0.0 0.0
1 5.65903639118623900e+01 0.0 0.0
1 -7.94899316673454592e+01 0.0 0.0
1 8.87320964096488751e+01 0.0 0.0
1 -2.33126682132553320e+00 0.0 0.0
1 -7.92323391856592707e+01 0.0 0.0
1 -4.58129510322875291e+01 0.0 0.0
1 -4.57101124894268906e+01 0.0 0.0
8
Step 910
1 -4.90800072022651293e+01 0.0 0.0
1 5.57413705156279633e+01 0.0 0.0
1 -8.29177358608962862e+01 0.0 0.0
1 9.46645250296496101e+01 0.0 0.0
1 -9.24986574031214559e+00 0.0 0.0
1 -8.38009078214070939e+01 0.0 0.0
1 -4.63847275697080832e+01 0.0 0.0
1 -4.93494481755556507e+01 0.0 0.0
8
Step 920
1 -5.05865835459699795e+01 0.0 0.0
1 5.44992715052563312e+01 0.0 0.0
1 -8.57236062867364410e+01 0.0 0.0
1 9.96667637181685677e+01 0.0 0.0
1 -1.59258961235760577e+01 0.0 0.0
1 -8.78759704823467729e+01 0.0 0.0
1 -4.65399719194426496e+01 0.0 0.0
1 -5.21657648196826926e+01 0.0 0.0
8
Step 930
1 -5.19068580186767150e+01 0.0 0.0
1 5.28906014396637900e+01 0.0 0.0
1 -8.78490932260645252e+01 0.0 0.0
1 1.03655666956026010e+02 0.0 0.0
1 -2.22561428142816027e+01 0.0 0.0
1 -9.13844149115528097e+01 0.0 0.0
1 -4.62290643747570797e+01 0.0 0.0
1 -5.41675824249995870e+01 0.0 0.0
8
Step 940
1 -5.30508659705519534e+01 0.0 0.0
1 5.09450748155209752e+01 0.0 0.0
1 -8.92434913492152901e+01 0.0 0.0
1 1.06561033872852050e+02 0.0 0.0
1 -2.81445032348388651e+01 0.0 0.0
1 -9.42586354679500573e+01 0.0 0.0
1 -4.54085463807251202e+01 0.0 0.0
1 -5.53745845592565047e+01 0.0 0.0
8
Step 950
1 -5.40294497283665436e+01 0.0 0.0
1 4.86952253615143320e+01 0.0 0.0
1 -8.98644955653863775e+01 0.0 0.0
1 1.08326562992720724e+02 0.0 0.0
1 -3.35032266413017297e+01 0.0 0.0
1 -9.64374881007272933e+01 0.0 0.0
1 -4.40418100669340973e+01 0.0 0.0
1 -5.58169938445245819e+01 0.0 0.0
8
Step 960
1 -5.48539770151041992e+01 0.0 0.0
1 4.61760448422517129e+01 0.0 0.0
1 -8.96787717975850711e+01 0.0 0.0
1 1.08910648578610875e+02 0.0 0.0
1 -3.82540023916598315e+01 0.0 0.0
1 -9.78671758167632788e+01 0.0 0.0
1 -4.20997121929607019e+01 0.0 0.0
1 -5.55348410481604091e+01 0.0 0.0
8
Step 970
1 -5.55360727950178372e+01 0.0 0.0
1 4.34246235169314048e+01 0.0 0.0
1 -8.86624507557273063e+01 0.0 0.0
1 1.08287029188652127e+02 0.0 0.0
1 -4.23289038359639775e+01 0.0 0.0
1 -9.85020684157380657e+01 0.0 0.0
1 -3.95611161678581240e+01 0.0 0.0
1 -5.45771453618388946e+01 0.0 0.0
8
Step 980
1 -5.60873684978399822e+01 0.0 0.0
1 4.04797913003368421e+01 0.0 0.0
1 -8.68015502146383682e+01 0.0 0.0
1 1.06445295278882483e+02 0.0 0.0
1 -4.56711954847105090e+01 0.0 0.0
1 -9.83054589436779196e+01 0.0 0.0
1 -3.64133638856069481e+01 0.0 0.0
1 -5.30010188909205482e+01 0.0 0.0
8
Step 990
1 -5.65192711848464455e+01 0.0 0.0
1 3.73817560784034200e+01 0.0 0.0
1 -8.40923270038231294e+01 0.0 0.0
1 1.03391256502446453e+02 0.0 0.0
1 -4.82360095564646585e+01 0.0 0.0
1 -9.72502560701420151e+01 0.0 0.0
1 -3.26526757578230900e+01 0.0 0.0
1 -5.08707036223155740e+01 0.0 0.0
8
Step 1000
1 -5.68427540301770051e+01 0.0 0.0
1 3.41717338017428247e+01 0.0 0.0
1 -8.05415543824131390e+01 0.0 0.0
1 9.91471616027207858e+01 0.0 0.0
1 -4.99908942432087926e+01 0.0 0.0
1 -9.53196067775726590e+01 0.0 0.0
1 -2.82844729446873870e+01 0.0 0.0
1 -4.82565448936239747e+01 0.0 0.0
8
Step 1010
1 -5.70681685711802089e+01 0.0 0.0
1 3.08915641188154311e+01 0.0 0.0
1 -7.61667143541981204e+01 0.0 0.0
1 9.37517555153404913e+01 0.0 0.0
1 -5.09162306924606298e+01 0.0 0.0
1 -9.25074378987615091e+01 0.0 0.0
1 -2.33236109466174462e+01 0.0 0.0
1 -4.52339022763601335e+01 0.0 0.0
8
Step 1020
1 -5.72050785612165384e+01 0.0 0.0
1 2.75833055440580459e+01 0.0 0.0
1 -7.09960885400049477e+01 0.0 0.0
1 8.72601506582781070e+01 0.0 0.0
1 -5.10055096074306036e+01 0.0 0.0
1 -8.88188988505052635e+01 0.0 0.0
1 -1.77945090929621941e+01 0.0 0.0
1 -4.18819973211920171e+01 0.0 0.0
8
Step 1030
1 -5.72621149318456659e+01 0.0 0.0
1 2.42888055286855007e+01 0.0 0.0
1 -6.50687263080660756e+01 0.0 0.0
1 7.97434836391132222e+01 0.0 0.0
1 -5.02654524643521370e+01 0.0 0.0
1 -8.42706822220738587e+01 0.0 0.0
1 -1.17311567851657106e+01 0.0 0.0
1 -3.82826981409886500e+01 0.0 0.0
8
Step 1040
1 -5.72468513027176797e+01 0.0 0.0
1 2.10492432564758367e+01 0.0 0.0
1 -5.84342658167005879e+01 0.0 0.0