8
Step 0
1 1.26120211529828964e+02 0.0 0.0
1 -1.19964011082790137e+02 0.0 0.0
1 8.56699457260447161e+01 0.0 0.0
1 -7.91980072839022426e+01 0.0 0.0
1 1.23053404130892602e+02 0.0 0.0
1 1.24278054187235682e+02 0.0 0.0
1 1.16412581309152188e+02 0.0 0.0
1 -9.38921372381371953e+01 0.0 0.0
8
Step 10
1 1.21131033487932072e+02 0.0 0.0
1 -1.21442305671190397e+02 0.0 0.0
1 8.49639756227122831e+01 0.0 0.0
1 -7.59837683996357924e+01 0.0 0.0
1 1.23647974810902284e+02 0.0 0.0
1 1.23483733066758930e+02 0.0 0.0
1 1.17550718534033280e+02 0.0 0.0
1 -9.59891146990148059e+01 0.0 0.0
8
Step 20
1 1.15157701069375307e+02 0.0 0.0
1 -1.21886723832948448e+02 0.0 0.0
1 8.34482611322053174e+01 0.0 0.0
1 -7.20568392738131820e+01 0.0 0.0
1 1.23413625351517709e+02 0.0 0.0
1 1.21765104187582608e+02 0.0 0.0
1 1.17539100315818786e+02 0.0 0.0
1 -9.65319272876395189e+01 0.0 0.0
8
Step 30
1 1.08338350527329879e+02 0.0 0.0
1 -1.21273254531889691e+02 0.0 0.0
1 8.11395981380871376e+01 0.0 0.0
1 -6.74665548263166528e+01 0.0 0.0
1 1.22323071259140093e+02 0.0 0.0
1 1.19152044957444559e+02 0.0 0.0
1 1.16400065626390358e+02 0.0 0.0
1 -9.55393603417210784e+01 0.0 0.0
8
Step 40
1 1.00819578928386434e+02 0.0 0.0
1 -1.19588433376099118e+02 0.0 0.0
1 7.80648838359119424e+01 0.0 0.0
1 -6.22691516485722545e+01 0.0 0.0
1 1.20357633524724946e+02 0.0 0.0
1 1.15683789678473005e+02 0.0 0.0
1 1.14168326746797575e+02 0.0 0.0
1 -9.30532444899132258e+01 0.0 0.0
8
Step 50
1 9.27544706335468732e+01 0.0 0.0
1 -1.16829999977109352e+02 0.0 0.0
1 7.42608585023477730e+01 0.0 0.0
1 -5.65273031124179042e+01 0.0 0.0
1 1.17507815013516762e+02 0.0 0.0
1 1.11408880713624384e+02 0.0 0.0
1 1.10890654129463229e+02 0.0 0.0
1 -8.91381314759352819e+01 0.0 0.0
8
Step 60
1 8.43005199201866304e+01 0.0 0.0
1 -1.13007540751840267e+02 0.0 0.0
1 6.97737554761030907e+01 0.0 0.0
1 -5.03095972117272083e+01 0.0 0.0
1 1.13773862724928733e+02 0.0 0.0
1 1.06385077745544024e+02 0.0 0.0
1 1.06625508876687221e+02 0.0 0.0
1 -8.38807663352385759e+01 0.0 0.0
8
Step 70
1 7.56174178767710004e+01 0.0 0.0
1 -1.08143059430138280e+02 0.0 0.0
1 6.46588207234552641e+01 0.0 0.0
1 -4.36899245988552138e+01 0.0 0.0
1 1.09166276311307016e+02 0.0 0.0
1 1.00679174603329955e+02 0.0 0.0
1 1.01442576308610143e+02 0.0 0.0
1 -7.73892831071929237e+01 0.0 0.0
8
Step 80
1 6.68646870371259041e+01 0.0 0.0
1 -1.02271409601436901e+02 0.0 0.0
1 5.89796662878492697e+01 0.0 0.0
1 -3.67467480801471211e+01 0.0 0.0
1 1.03706214834492471e+02 0.0 0.0
1 9.43666692260290034e+01 0.0 0.0
1 9.54221511958679116e+01 0.0 0.0
1 -6.97920453961082359e+01 0.0 0.0
8
Step 90
1 5.81991685432306554e+01 0.0 0.0
1 -9.54405218340140493e+01 0.0 0.0
1 5.28074301741043115e+01 0.0 0.0
1 -2.95622331195125021e+01 0.0 0.0
1 9.74257496793489963e+01 0.0 0.0
1 8.75312357581132403e+01 0.0 0.0
1 8.86543287164801512e+01 0.0 0.0
1 -6.12360594377886045e+01 0.0 0.0
8
Step 100
1 4.97723918543840824e+01 0.0 0.0
1 -8.77113623061969605e+01 0.0 0.0
1 4.62197274280261468e+01 0.0 0.0
1 -2.22212310197234544e+01 0.0 0.0
1 9.03679129246065571e+01 0.0 0.0
1 8.02639589236681701e+01 0.0 0.0
1 8.12379652560066745e+01 0.0 0.0
1 -5.18849067626892193e+01 0.0 0.0
8
Step 110
1 4.17278833427352964e+01 0.0 0.0
1 -7.91575708287889626e+01 0.0 0.0
1 3.92993922419439556e+01 0.0 0.0
1 -1.48101211229373231e+01 0.0 0.0
1 8.25864978880989327e+01 0.0 0.0
1 7.26623085202146655e+01 0.0 0.0
1 7.32793893525067546e+01 0.0 0.0
1 -4.19161748720668115e+01 0.0 0.0
8
Step 120
1 3.41984941032538075e+01 0.0 0.0
1 -6.98647439203134724e+01 0.0 0.0
1 3.21330279352591575e+01 0.0 0.0
1 -7.41553387442749656e+00 0.0 0.0
1 7.41455818706276517e+01 0.0 0.0
1 6.48288538236313627e+01 0.0 0.0
1 6.48908641157682240e+01 0.0 0.0
1 -3.15184042120443344e+01 0.0 0.0
8
Step 130
1 2.73038452884996126e+01 0.0 0.0
1 -5.99293524838205016e+01 0.0 0.0
1 2.48093993524368663e+01 0.0 0.0
1 -1.22991020955828034e-01 0.0 0.0
1 6.51187592766190733e+01 0.0 0.0
1 5.68697410695909653e+01 0.0 0.0
1 5.61888260595245015e+01 0.0 0.0
1 -2.08876130542364677e+01 0.0 0.0
8
Step 140
1 2.11479980283756426e+01 0.0 0.0
1 -4.94573112326184869e+01 0.0 0.0
1 1.74177187019438371e+01 0.0 0.0
1 6.98448931876746393e+00 0.0 0.0
1 5.55880943542437080e+01 0.0 0.0
1 4.88929790307706682e+01 0.0 0.0
1 4.72919483356020720e+01 0.0 0.0
1 -1.02235026975244576e+01 0.0 0.0
8
Step 150
1 1.58174525396522121e+01 0.0 0.0
1 -3.85622447003645306e+01 0.0 0.0
1 1.00458889283510207e+01 0.0 0.0
1 1.38277680925089470e+01 0.0 0.0
1 4.56428241836884396e+01 0.0 0.0
1 4.10065953695165533e+01 0.0 0.0
1 3.83190954364208594e+01 0.0 0.0
1 2.74522037898855764e-01 0.0 0.0
8
Step 160
1 1.13795672058366275e+01 0.0 0.0
1 -2.73635186222027507e+01 0.0 0.0
1 2.77877642875156994e+00 0.0 0.0
1 2.03328853496853164e+01 0.0 0.0
1 3.53778614588859739e+01 0.0 0.0
1 3.33167378368532212e+01 0.0 0.0
1 2.93872487473953932e+01 0.0 0.0
1 1.04113621940959593e+01 0.0 0.0
8
Step 170
1 7.88146493099541168e+00 0.0 0.0
1 -1.59841225635182234e+01 0.0 0.0
1 -4.30341386764492650e+00 0.0 0.0
1 2.64322333109255680e+01 0.0 0.0
1 2.48921605980712037e+01 0.0 0.0
1 2.59257982762361330e+01 0.0 0.0
1 2.06094864014915871e+01 0.0 0.0
1 2.00001044257739125e+01 0.0 0.0
8
Step 180
1 5.34946415963931354e+00 0.0 0.0
1 -4.54849797401493650e+00 0.0 0.0
1 -1.11265934768336034e+01 0.0 0.0
1 3.20655599465031145e+01 0.0 0.0
1 1.42870181161731331e+01 0.0 0.0
1 1.89306335443294955e+01 0.0 0.0
1 1.20930966830047772e+01 0.0 0.0
1 2.88656223641203198e+01 0.0 0.0
8
Step 190
1 3.78903967868452041e+00 0.0 0.0
1 6.81959521285646275e+00 0.0 0.0
1 -1.76240190927273517e+01 0.0 0.0
1 3.71807726039287161e+01 0.0 0.0
1 3.66437837645042652e+00 0.0 0.0
1 1.24209467177510060e+01 0.0 0.0
1 3.93789286112144854e+00 0.0 0.0
1 3.68477752132865319e+01 0.0 0.0
8
Step 200
1 3.18528785126697356e+00 0.0 0.0
1 1.79990900169857007e+01 0.0 0.0
1 -2.37372545087494942e+01 0.0 0.0
1 4.17345244882052810e+01 0.0 0.0
1 -6.87479075355847247e+00 0.0 0.0
1 6.47787611547363884e+00 0.0 0.0
1 -3.76521936467510798e+00 0.0 0.0
1 4.38041137154034246e+01 0.0 0.0
8
Step 210
1 3.50384585340224897e+00 0.0 0.0
1 2.88734350993450875e+01 0.0 0.0
1 -2.94168438527632112e+01 0.0 0.0
1 4.56925797367148974e+01 0.0 0.0
1 -1.72319998659000859e+01 0.0 0.0
1 1.17282119230122728e+00 0.0 0.0
1 -1.09353904347843809e+01 0.0 0.0
1 4.96120437281031883e+01 0.0 0.0
8
Step 220
1 4.69219723210188366e+00 0.0 0.0
1 3.93321831960592192e+01 0.0 0.0
1 -3.46226945038236877e+01 0.0 0.0
1 4.90299644580639580e+01 0.0 0.0
1 -2.73125806937324072e+01 0.0 0.0
1 -3.43348409838898716e+00 0.0 0.0
1 -1.75026806586426780e+01 0.0 0.0
1 5.41704382490369127e+01 0.0 0.0
8
Step 230
1 6.68128768081973146e+00 0.0 0.0
1 4.92723232141401866e+01 0.0 0.0
1 -3.93241882291366665e+01 0.0 0.0
1 5.17309208742293194e+01 0.0 0.0
1 -3.70268494759069995e+01 0.0 0.0
1 -7.29165597283440547e+00 0.0 0.0
1 -2.34086270995785917e+01 0.0 0.0
1 5.74007245811615974e+01 0.0 0.0
8
Step 240
1 9.38737490097250848e+00 0.0 0.0
1 5.85993567315174673e+01 0.0 0.0
1 -4.35000566794598953e+01 0.0 0.0
1 5.37886892134554131e+01 0.0 0.0
1 -4.62910869436008596e+01 0.0 0.0
1 -1.03641211031642104e+01 0.0 0.0
1 -2.86065467757857057e+01 0.0 0.0
1 5.92474997480555530e+01 0.0 0.0
8
Step 250
1 1.27140431999010861e+01 0.0 0.0
1 6.72281388686906496e+01 0.0 0.0
1 -4.71380690847876807e+01 0.0 0.0
1 5.52051467639086937e+01 0.0 0.0
1 -5.50283441371747770e+01 0.0 0.0
1 -1.26253773913430187e+01 0.0 0.0
1 -3.30616094647924470e+01 0.0 0.0
1 5.96787410741852185e+01 0.0 0.0
8
Step 260
1 1.65543247903471311e+01 0.0 0.0
1 7.50835163698272936e+01 0.0 0.0
1 -5.02345831407867749e+01 0.0 0.0
1 5.59903350544706058e+01 0.0 0.0
1 -6.31690926374409045e+01 0.0 0.0
1 -1.40620826301299555e+01 0.0 0.0
1 -3.67507180461287533e+01 0.0 0.0
1 5.86856796019654183e+01 0.0 0.0
8
Step 270
1 2.07928831132668748e+01 0.0 0.0
1 8.21008008836984970e+01 0.0 0.0
1 -5.27940045750998692e+01 0.0 0.0
1 5.61619044038770951e+01 0.0 0.0
1 -7.06517427877684696e+01 0.0 0.0
1 -1.46729969953287931e+01 0.0 0.0
1 -3.96622339367817531e+01 0.0 0.0
1 5.62823942846998335e+01 0.0 0.0
8
Step 280
1 2.53082265649590106e+01 0.0 0.0
1 8.82261135254256885e+01 0.0 0.0
1 -5.48281894434143524e+01 0.0 0.0
1 5.57445006455227698e+01 0.0 0.0
1 -7.74230542206999104e+01 0.0 0.0
1 -1.44688011348239147e+01 0.0 0.0
1 -4.17955808764310035e+01 0.0 0.0
1 5.25051690483864348e+01 0.0 0.0
8
Step 290
1 2.99749318363510469e+01 0.0 0.0
1 9.34166299251391763e+01 0.0 0.0
1 -5.63558097320817097e+01 0.0 0.0
1 5.47691128065815604e+01 0.0 0.0
1 -8.34384600921167845e+01 0.0 0.0
1 -1.34718061314475328e+01 0.0 0.0
1 -4.31607535330241419e+01 0.0 0.0
1 4.74116373333390371e+01 0.0 0.0
8
Step 300
1 3.46658633109577536e+01 0.0 0.0
1 9.76407455204960257e+01 0.0 0.0
1 -5.74016907244889509e+01 0.0 0.0
1 5.32723941758173822e+01 0.0 0.0
1 -8.86623208265224036e+01 0.0 0.0
1 -1.17155659710167601e+01 0.0 0.0
1 -4.37777495725457655e+01 0.0 0.0
1 4.10797231571960992e+01 0.0 0.0
8
Step 310
1 3.92543779488293652e+01 0.0 0.0
1 1.00878170754354016e+02 0.0 0.0
1 -5.79961200135724866e+01 0.0 0.0
1 5.12959636241309695e+01 0.0 0.0
1 -9.30681160912409808e+01 0.0 0.0
1 -9.24439793654981479e+00 0.0 0.0
1 -4.36759362427145845e+01 0.0 0.0
1 3.36063764841371295e+01 0.0 0.0
8
Step 320
1 4.36165038625527401e+01 0.0 0.0
1 1.03119956397350251e+02 0.0 0.0
1 -5.81741239448507343e+01 0.0 0.0
1 4.88856899713109883e+01 0.0 0.0
1 -9.66385764495821036e+01 0.0 0.0
1 -6.11281166840354651e+00 0.0 0.0
1 -4.28933561529167520e+01 0.0 0.0
1 2.51060950076599347e+01 0.0 0.0
8
Step 330
1 4.76330761069943662e+01 0.0 0.0
1 1.04368441239201900e+02 0.0 0.0
1 -5.79747073073327641e+01 0.0 0.0
1 4.60909599654619697e+01 0.0 0.0
1 -9.93657498786435838e+01 0.0 0.0
1 -2.38484352866907257e+00 0.0 0.0
1 -4.14759724643984171e+01 0.0 0.0
1 1.57092244844774935e+01 0.0 0.0
8
Step 340
1 5.11918063305617821e+01 0.0 0.0
1 1.04637108413945342e+02 0.0 0.0
1 -5.74400548033022247e+01 0.0 0.0
1 4.29639300782824165e+01 0.0 0.0
1 -1.01250993887201929e+02 0.0 0.0
1 1.86671011035035606e+00 0.0 0.0
1 -3.94768514798994943e+01 0.0 0.0
1 5.56003463396809838e+00 0.0 0.0
8
Step 350
1 5.41892554263215516e+01 0.0 0.0
1 1.03950333096277816e+02 0.0 0.0
1 -5.66146963770940133e+01 0.0 0.0
1 3.95587636036182744e+01 0.0 0.0
1 -1.02304881631812933e+02 0.0 0.0
1 6.56116800520632371e+00 0.0 0.0
1 -3.69552806734693746e+01 0.0 0.0
1 -5.18542409832351758e+00 0.0 0.0
8
Step 360
1 5.65326717098149913e+01 0.0 0.0
1 1.02343003716755732e+02 0.0 0.0
1 -5.55446416485503534e+01 0.0 0.0
1 3.59308571253853586e+01 0.0 0.0
1 -1.02547010094874068e+02 0.0 0.0
1 1.16109530663476122e+01 0.0 0.0
1 -3.39758222846182107e+01 0.0 0.0
1 -1.63616674513483069e+01 0.0 0.0
8
Step 370
1 5.81416526973212555e+01 0.0 0.0
1 9.98600016087802942e+01 0.0 0.0
1 -5.42764914550572186e+01 0.0 0.0
1 3.21360638891902610e+01 0.0 0.0
1 -1.02005699803528728e+02 0.0 0.0
1 1.69226960079611608e+01 0.0 0.0
1 -3.06073062438305534e+01 0.0 0.0
1 -2.77963017284215326e+01 0.0 0.0
8
Step 380
1 5.89495871342468050e+01 0.0 0.0
1 9.65555300868976190e+01 0.0 0.0
1 -5.28565376013063641e+01 0.0 0.0
1 2.82299255220540282e+01 0.0 0.0
1 -1.00717578525151936e+02 0.0 0.0
1 2.23984478521293191e+01 0.0 0.0
1 -2.69217707672367048e+01 0.0 0.0
1 -3.93126891196301287e+01 0.0 0.0
8
Step 390
1 5.89048360682362002e+01 0.0 0.0
1 9.24922924792386993e+01 0.0 0.0
1 -5.13298657780691556e+01 0.0 0.0
1 2.42669272700180407e+01 0.0 0.0
1 -9.87270456713023066e+01 0.0 0.0
1 2.79369887098817387e+01 0.0 0.0
1 -2.29933637591130093e+01 0.0 0.0
1 -5.07327083181684557e+01 0.0 0.0
8
Step 400
1 5.79716178196040417e+01 0.0 0.0
1 8.77405279320834239e+01 0.0 0.0
1 -4.97394806475246867e+01 0.0 0.0
1 2.02997944461521413e+01 0.0 0.0
1 -9.60856193996655037e+01 0.0 0.0
1 3.34352143576875136e+01 0.0 0.0
1 -1.88972225422788931e+01 0.0 0.0
1 -6.18795574598679039e+01 0.0 0.0
8
Step 410
1 5.61305717218588143e+01 0.0 0.0
1 8.23769221954535737e+01 0.0 0.0
1 -4.81254750260611956e+01 0.0 0.0
1 1.63788477669867518e+01 0.0 0.0
1 -9.28511739883794007e+01 0.0 0.0
1 3.87895776083992345e+01 0.0 0.0
1 -1.47083528985506060e+01 0.0 0.0
1 -7.25805412491525317e+01 0.0 0.0
8
Step 420
1 5.33789887134358878e+01 0.0 0.0
1 7.64834172906163587e+01 0.0 0.0
1 -4.65242659145457012e+01 0.0 0.0
1 1.25514318331045072e+01 0.0 0.0
1 -8.90870802444957803e+01 0.0 0.0
1 4.38975582083612892e+01 0.0 0.0
1 -1.05005306110507703e+01 0.0 0.0
1 -8.26697812857755565e+01 0.0 0.0
8
Step 430
1 4.97307112479186557e+01 0.0 0.0
1 7.01459490997190329e+01 0.0 0.0
1 -4.49679186840607557e+01 0.0 0.0
1 8.86142486446024691e+00 0.0 0.0
1 -8.48612659648982657e+01 0.0 0.0
1 4.86591327965267624e+01 0.0 0.0
1 -6.34524940114804892e+00 0.0 0.0
1 -9.19907884479060556e+01 0.0 0.0
8
Step 440
1 4.52157179521311789e+01 0.0 0.0
1 6.34531457131506968e+01 0.0 0.0
1 -4.34835775949962553e+01 0.0 0.0
1 5.34883115994203440e+00 0.0 0.0
1 -8.02452165458921627e+01 0.0 0.0
1 5.29782156522691139e+01 0.0 0.0
1 -2.31073810879816355e+00 0.0 0.0
1 -1.00398839585246876e+02 0.0 0.0
8
Step 450
1 3.98794182389262559e+01 0.0 0.0
1 5.64950213907975538e+01 0.0 0.0
1 -4.20930167804991839e+01 0.0 0.0
1 2.04945276515177754e+00 0.0 0.0
1 -7.53129376125908010e+01 0.0 0.0
1 5.67640421970906530e+01 0.0 0.0
1 1.53893291035055846e+00 0.0 0.0
1 -1.07763108484535834e+02 0.0 0.0
8
Step 460
1 3.37816884105580826e+01 0.0 0.0
1 4.93617004806951485e+01 0.0 0.0
1 -4.08123214427035066e+01 0.0 0.0
1 -1.00536587912787412e+00 0.0 0.0
1 -7.01399018830138488e+01 0.0 0.0
1 5.99324707660024885e+01 0.0 0.0
1 5.14464064384598974e+00 0.0 0.0
1 -1.13968512711567442e+02 0.0 0.0
8
Step 470
1 2.69956842431043498e+01 0.0 0.0
1 4.21422022333211501e+01 0.0 0.0
1 -3.96517045920856006e+01 0.0 0.0
1 -3.78892761934280831e+00 0.0 0.0
1 -6.48020013533221828e+01 0.0 0.0
1 6.24071834667481369e+01 0.0 0.0
1 8.45288341048745373e+00 0.0 0.0
1 -1.18917251829420209e+02 0.0 0.0
8
Step 480
1 1.96064661795768700e+01 0.0 0.0
1 3.49233114335167301e+01 0.0 0.0
1 -3.86154603067811379e+01 0.0 0.0
1 -6.27931411873783762e+00 0.0 0.0
1 -5.93745234731298908e+01 0.0 0.0
1 6.41207728964165398e+01 0.0 0.0
1 1.14163354254018294e+01 0.0 0.0
1 -1.22530026446978781e+02 0.0 0.0
8
Step 490
1 1.17094724185868024e+01 0.0 0.0
1 2.77885518649021321e+01 0.0 0.0
1 -3.77020502305603031e+01 0.0 0.0
1 -8.45946633360708233e+00 0.0 0.0
1 -5.39311666802673457e+01 0.0 0.0
1 6.50157069661187421e+01 0.0 0.0
1 1.39942824057765769e+01 0.0 0.0
1 -1.24746939681836736e+02 0.0 0.0
8
Step 500
1 3.40887270501854900e+00 0.0 0.0
1 2.08172708236593422e+01 0.0 0.0
1 -3.69043159891659585e+01 0.0 0.0
1 -1.03172199381869252e+01 0.0 0.0
1 -4.85431070029162299e+01 0.0 0.0
1 6.50451682743575645e+01 0.0 0.0
1 1.61529425826897146e+01 0.0 0.0
1 -1.25528091709352694e+02 0.0 0.0
8
Step 510
1 -5.18416798422306613e+00 0.0 0.0
1 1.40838344793230519e+01 0.0 0.0
1 -3.62098067401702721e+01 0.0 0.0
1 -1.18452999046929577e+01 0.0 0.0
1 -4.32781239307501906e+01 0.0 0.0
1 6.41737669177660166e+01 0.0 0.0
1 1.78656799667300881e+01 0.0 0.0
1 -1.24853883584235859e+02 0.0 0.0
8
Step 520
1 -1.39532907454202153e+01 0.0 0.0
1 7.65692724022119098e+00 0.0 0.0
1 -3.56012087237949828e+01 0.0 0.0
1 -1.30412761395822692e+01 0.0 0.0
1 -3.81997908403723656e+01 0.0 0.0
1 6.23781262222545720e+01 0.0 0.0
1 1.91131177527003722e+01 0.0 0.0
1 -1.22725048538707171e+02 0.0 0.0
8
Step 530
1 -2.27787877541278796e+01 0.0 0.0
1 1.59894451706974183e+00 0.0 0.0
1 -3.50568628721296633e+01 0.0 0.0
1 -1.39074796160684464e+01 0.0 0.0
1 -3.33667332376640502e+01 0.0 0.0
1 5.96473397979561355e+01 0.0 0.0
1 1.98831595709408582e+01 0.0 0.0
1 -1.19162428039475799e+02 0.0 0.0
8
Step 540
1 -3.15394726001706687e+01 0.0 0.0
1 -4.03453229117576750e+00 0.0 0.0
1 -3.45513571941865152e+01 0.0 0.0
1 -1.44508762558061115e+01 0.0 0.0
1 -2.88319570942999910e+01 0.0 0.0
1 5.59832959913742343e+01 0.0 0.0
1 2.01709252918555322e+01 0.0 0.0
1 -1.14206506883211702e+02 0.0 0.0
8
Step 550
1 -4.01145591147919376e+01 0.0 0.0
1 -9.19518768720353918e+00 0.0 0.0
1 -3.40561821502803070e+01 0.0 0.0
1 -1.46828943376454077e+01 0.0 0.0
1 -2.46422495832870148e+01 0.0 0.0
1 5.14008628366154241e+01 0.0 0.0
1 1.99786066961331379e+01 0.0 0.0
1 -1.07916717504611569e+02 0.0 0.0
8
Step 560
1 -4.83855317692161577e+01 0.0 0.0
1 -1.38423562586427256e+01 0.0 0.0
1 -3.35404386679902160e+01 0.0 0.0
1 -1.46192008034647500e+01 0.0 0.0
1 -2.08376553828179141e+01 0.0 0.0
1 4.59279237051073181e+01 0.0 0.0
1 1.93152469012216379e+01 0.0 0.0
1 -1.00370519456857153e+02 0.0 0.0
8
Step 570
1 -5.62379890507061830e+01 0.0 0.0
1 -1.79433403471768607e+01 0.0 0.0
1 -3.29715891151674398e+01 0.0 0.0
1 -1.42794226183001527e+01 0.0 0.0
1 -1.74510331267140266e+01 0.0 0.0
1 3.96052517243156004e+01 0.0 0.0
1 1.81964462447208497e+01 0.0 0.0
1 -9.16622566877719294e+01 0.0 0.0
8
Step 580
1 -6.35634382431390463e+01 0.0 0.0
1 -2.14736584218682616e+01 0.0 0.0
1 -3.23162411458770222e+01 0.0 0.0
1 -1.36868111370592924e+01 0.0 0.0
1 -1.45076981700733114e+01 0.0 0.0
1 3.24862102678378335e+01 0.0 0.0
1 1.66439965418340385e+01 0.0 0.0
1 -8.19017937094075137e+01 0.0 0.0
8
Step 590
1 -7.02610162499474313e+01 0.0 0.0
1 -2.44172181611863159e+01 0.0 0.0
1 -3.15409530067307600e+01 0.0 0.0
1 -1.28678498182678869e+01 0.0 0.0
1 -1.20251592244919241e+01 0.0 0.0
1 2.46362678009619600e+01 0.0 0.0
1 1.46854453863336047e+01 0.0 0.0
1 -7.12129327819927909e+01 0.0 0.0
8
Step 600
1 -7.62391071480111719e+01 0.0 0.0
1 -2.67664060953249425e+01 0.0 0.0
1 -3.06130470229880238e+01 0.0 0.0
1 -1.18518081811991483e+01 0.0 0.0
1 -1.00129572379672762e+01 0.0 0.0
1 1.61323182592511500e+01 0.0 0.0
1 1.23535925540669709e+01 0.0 0.0
1 -5.97316181579935872e+01 0.0 0.0
8
Step 610
1 -8.14168237883468748e+01 0.0 0.0
1 -2.85220847261797239e+01 0.0 0.0
1 -2.95014160455277406e+01 0.0 0.0
1 -1.06702473622737273e+01 0.0 0.0
1 -8.47261486147559140e+00 0.0 0.0
1 7.06180288985785065e+00 0.0 0.0
1 9.68592164802063671e+00 0.0 0.0
1 -4.76039401096701198e+01 0.0 0.0
8
Step 620
1 -8.57253187157183447e+01 0.0 0.0
1 -2.96934883566427636e+01 0.0 0.0
1 -2.81773060704688021e+01 0.0 0.0
1 -9.35648490432428126e+00 0.0 0.0
1 -7.39770377913440136e+00 0.0 0.0
1 -2.47836414742127076e+00 0.0 0.0
1 6.72397186438332994e+00 0.0 0.0
1 -3.49839602658150355e+01 0.0 0.0
8
Step 630
1 -8.91088896647499809e+01 0.0 0.0
1 -3.02980103115196826e+01 0.0 0.0
1 -2.66150573989095278e+01 0.0 0.0
1 -7.94502850502327185e+00 0.0 0.0
1 -6.77403504079588359e+00 0.0 0.0
1 -1.23830565563269257e+01 0.0 0.0
1 3.51265702687539294e+00 0.0 0.0
1 -2.20313897269380128e+01 0.0 0.0
8
Step 640
1 -9.15258474858718500e+01 0.0 0.0
1 -3.03608765625763759e+01 0.0 0.0
1 -2.47927868276193166e+01 0.0 0.0
1 -6.47099033167990978e+00 0.0 0.0
1 -6.57997442904528285e+00 0.0 0.0
1 -2.25403650063671037e+01 0.0 0.0
1 9.95416037152232480e-02 0.0 0.0
1 -8.90916132275951966e+00 0.0 0.0
8
Step 650
1 -9.29491199383597433e+01 0.0 0.0
1 -2.99147036322830395e+01 0.0 0.0
1 -2.26929945542031604e+01 0.0 0.0
1 -4.96949507387389033e+00 0.0 0.0
1 -6.78688105221757887e+00 0.0 0.0
1 -3.28331684107048503e+01 0.0 0.0
1 -3.46591400466241151e+00 0.0 0.0
1 4.21905404390412997e+00 0.0 0.0
8
Step 660
1 -9.33665733962073148e+01 0.0 0.0
1 -2.89989417431195555e+01 0.0 0.0
1 -2.03030816841341171e+01 0.0 0.0
1 -3.47509596601605475e+00 0.0 0.0
1 -7.35966311149745867e+00 0.0 0.0
1 -4.31408140099404278e+01 0.0 0.0
1 -7.13312435519771881e+00 0.0 0.0
1 1.71913309621727706e+01 0.0 0.0
8
Step 670
1 -9.27810456363915534e+01 0.0 0.0
1 -2.76592074232048830e+01 0.0 0.0
1 -1.76157672335624618e+01 0.0 0.0
1 -2.02121332684797839e+00 0.0 0.0
1 -8.25744051868404050e+00 0.0 0.0
1 -5.33408673336544510e+01 0.0 0.0
1 -1.08511498247709319e+01 0.0 0.0
1 2.98499144005218504e+01 0.0 0.0
8
Step 680
1 -9.12100953018082521e+01 0.0 0.0
1 -2.59465133791878628e+01 0.0 0.0
1 -1.46293970242255451e+01 0.0 0.0
1 -6.39609495178154019e-01 0.0 0.0
1 -9.43430011643484789e+00 0.0 0.0
1 -6.33108898714710264e+01 0.0 0.0
1 -1.45694504544373693e+01 0.0 0.0
1 4.20435287031136227e+01 0.0 0.0
8
Step 690
1 -8.86854855600934542e+01 0.0 0.0
1 -2.39164076587594643e+01 0.0 0.0
1 -1.13481405438072720e+01 0.0 0.0
1 6.40087735662796753e-01 0.0 0.0
1 -1.08401260247024833e+01 0.0 0.0
1 -7.29302017810100836e+01 0.0 0.0
1 -1.82386060382154582e+01 0.0 0.0
1 5.36295186298697715e+01 0.0 0.0
8
Step 700
1 -8.52524291240228678e+01 0.0 0.0
1 -2.16280387993177214e+01 0.0 0.0
1 -7.78207542951588671e+00 0.0 0.0
1 1.79080386607293440e+00 0.0 0.0
1 -1.24214854192231243e+01 0.0 0.0
1 -8.20815892826945230e+01 0.0 0.0
1 -2.18109870760608082e+01 0.0 0.0
1 6.44757785303543187e+01 0.0 0.0
8
Step 710
1 -8.09686281044022849e+01 0.0 0.0
1 -1.91431680000271527e+01 0.0 0.0
1 -3.94716251891438041e+00 0.0 0.0
1 2.78837272521667678e+00 0.0 0.0
1 -1.41225490813031804e+01 0.0 0.0
1 -9.06529212778969224e+01 0.0 0.0
1 -2.52413635847691289e+01 0.0 0.0
1 7.44624358712495820e+01 0.0 0.0
8
Step 720
1 -7.59031451063881946e+01 0.0 0.0
1 -1.65251522389924332e+01 0.0 0.0
1 1.34882783587315147e-01 0.0 0.0
1 3.61182542783930138e+00 0.0 0.0
1 -1.58860264351980831e+01 0.0 0.0
1 -9.85386466005901838e+01 0.0 0.0
1 -2.84874419182268745e+01 0.0 0.0
1 8.34832664776948548e+01 0.0 0.0
8
Step 730
1 -7.01351421965663633e+01 0.0 0.0
1 -1.38379228882785821e+01 0.0 0.0
1 4.43681493605062105e+00 0.0 0.0
1 4.24361401876171929e+00 0.0 0.0
1 -1.76540963878505259e+01 0.0 0.0
1 -1.05641151376920078e+02 0.0 0.0
1 -3.15103233503764137e+01 0.0 0.0
1 9.14468301923804319e+01 0.0 0.0
8
Step 740
1 -6.37525225922201884e+01 0.0 0.0
1 -1.11449826840534438e+01 0.0 0.0
1 8.92616926508516073e+00 0.0 0.0
1 4.66977295505721823e+00 0.0 0.0
1 -1.93693177821854725e+01 0.0 0.0
1 -1.11871964324126864e+02 0.0 0.0
1 -3.42748818451236943e+01 0.0 0.0
1 9.82773264425226074e+01 0.0 0.0
8
Step 750
1 -5.68505066903419305e+01 0.0 0.0
1 -8.50844043988307597e+00 0.0 0.0
1 1.35656498595438819e+01 0.0 0.0
1 4.88002306507818773e+00 0.0 0.0
1 -2.09755062439746887e+01 0.0 0.0
1 -1.17152805591446722e+02 0.0 0.0
1 -3.67500618292784367e+01 0.0 0.0
1 1.03915178655855286e+02 0.0 0.0
8
Step 760
1 -4.95301697556920857e+01 0.0 0.0
1 -5.98809847165758224e+00 0.0 0.0
1 1.83135849824567316e+01 0.0 0.0
1 4.86782323617835644e+00 0.0 0.0
1 -2.24185672367224811e+01 0.0 0.0
1 -1.21416481180722684e+02 0.0 0.0
1 -3.89090996187067830e+01 0.0 0.0
1 1.08317363877762958e+02 0.0 0.0
8
Step 770
1 -4.18969636281734736e+01 0.0 0.0
1 -3.64060312835160671e+00 0.0 0.0
1 2.31244415670533954e+01 0.0 0.0
1 4.63037495163876400e+00 0.0 0.0
1 -2.36472779267710393e+01 0.0 0.0
1 -1.24607629547682805e+02 0.0 0.0
1 -4.07296742367391431e+01 0.0 0.0
1 1.11457508837734338e+02 0.0 0.0
8
Step 780
1 -3.40592396658673735e+01 0.0 0.0
1 -1.51866472203395841e+00 0.0 0.0
1 2.79493916763726595e+01 0.0 0.0
1 4.16858411926566941e+00 0.0 0.0
1 -2.46140127957491792e+01 0.0 0.0
1 -1.26683329407313806e+02 0.0 0.0
1 -4.21939946198675173e+01 0.0 0.0
1 1.13325775949356512e+02 0.0 0.0
8
Step 790
1 -2.61267853209501979e+01 0.0 0.0
1 3.29650048624012149e-01 0.0 0.0
1 3.27369252375836055e+01 0.0 0.0
1 3.48698363186497140e+00 0.0 0.0
1 -2.52754096933929837e+01 0.0 0.0
1 -1.27613578057649576e+02 0.0 0.0
1 -4.32888306380502854e+01 0.0 0.0
1 1.13928562489673212e+02 0.0 0.0
8
Step 800
1 -1.82093827186341173e+01 0.0 0.0
1 1.86155215248791595e+00 0.0 0.0
1 3.74335046542174865e+01 0.0 0.0
1 2.59361899151574304e+00 0.0 0.0
1 -2.55929741272654390e+01 0.0 0.0
1 -1.27381647952916850e+02 0.0 0.0
1 -4.40054950577825039e+01 0.0 0.0
1 1.13288033937594108e+02 0.0 0.0
8
Step 810
1 -1.04153947369314945e+01 0.0 0.0
1 3.04009061383051771e+00 0.0 0.0
1 4.19842578144740841e+01 0.0 0.0
1 1.49989830757533960e+00 0.0 0.0
1 -2.55336200095580601e+01 0.0 0.0
1 -1.25984326242279408e+02 0.0 0.0
1 -4.43397826989456973e+01 0.0 0.0
1 1.11441508770600166e+02 0.0 0.0
8
Step 820
1 -2.85038259383166093e+00 0.0 0.0
1 3.83463891501650123e+00 0.0 0.0
1 4.63337063522481358e+01 0.0 0.0
1 2.20407192205615249e-01 0.0 0.0
1 -2.50701448553904633e+01 0.0 0.0
1 -1.23432038094476056e+02 0.0 0.0
1 -4.42918717703390428e+01 0.0 0.0
1 1.08440707615297413e+02 0.0 0.0
8
Step 830
1 4.38424108007562641e+00 0.0 0.0
1 4.22130611312291304e+00 0.0 0.0
1 5.04265256434610691e+01 0.0 0.0
1 -1.22731137763236409e+00 0.0 0.0
1 -2.41816366556566393e+01 0.0 0.0
1 -1.19748850434761721e+02 0.0 0.0
1 -4.38661909138891701e+01 0.0 0.0
1 1.04350875215586214e+02 0.0 0.0
8
Step 840
1 1.11925183342630579e+01 0.0 0.0
1 4.18326991382039814e+00 0.0 0.0
1 5.42083318878298144e+01 0.0 0.0
1 -2.82301224611799029e+00 0.0 0.0
1 -2.28538085114386327e+01 0.0 0.0
1 -1.14972348792165832e+02 0.0 0.0
1 -4.30712540356597273e+01 0.0 0.0
1 9.92497798628978813e+01 0.0 0.0
8
Step 850
1 1.74852032414405407e+01 0.0 0.0
1 3.71102736968900437e+00 0.0 0.0
1 5.76264897960129616e+01 0.0 0.0
1 -4.54403804233727993e+00 0.0 0.0
1 -2.10792558591481409e+01 0.0 0.0
1 -1.09153376806426749e+02 0.0 0.0
1 -4.19194637231068157e+01 0.0 0.0
1 9.32265922645697032e+01 0.0 0.0
8
Step 860
1 2.31809591589515058e+01 0.0 0.0
1 2.80255749557084632e+00 0.0 0.0
1 6.06309320380338761e+01 0.0 0.0
1 -6.36564302832405104e+00 0.0 0.0
1 -1.88576300091475382e+01 0.0 0.0
1 -1.02355626023625859e+02 0.0 0.0
1 -4.04268830830540651e+01 0.0 0.0
1 8.63806447063852687e+01 0.0 0.0
8
Step 870
1 2.82074807661724520e+01 0.0 0.0
1 1.46338917948806557e+00 0.0 0.0
1 6.31749789566715947e+01 0.0 0.0
1 -8.26134901507489339e+00 0.0 0.0
1 -1.61957210304461121e+01 0.0 0.0
1 -9.46550632809354937e+01 0.0 0.0
1 -3.86129752894652043e+01 0.0 0.0
1 7.88200720183423300e+01 0.0 0.0
8
Step 880
1 3.25025220704852842e+01 0.0 0.0
1 -2.93432498184436841e-01 0.0 0.0
1 6.52161444058427406e+01 0.0 0.0
1 -1.02033303556021622e+01 0.0 0.0
1 -1.31074429596374387e+01 0.0 0.0
1 -8.61391844908539923e+01 0.0 0.0
1 -3.65003100715381379e+01 0.0 0.0
1 7.06603383070704609e+01 0.0 0.0
8
Step 890
1 3.60148086107499097e+01 0.0 0.0
1 -2.44748791862625215e+00 0.0 0.0
1 6.67169112547374823e+01 0.0 0.0
1 -1.21628236603376756e+01 0.0 0.0
1 -9.61371503984100428e+00 0.0 0.0
1 -7.69060870741432439e+01 0.0 0.0
1 -3.41142368256076480e+01 0.0 0.0
1 6.20226574928890599e+01 0.0 0.0
8
Step 900
1 3.87048103362483999e+01 0.0 0.0
1 -4.97123758725639053e+00 0.0 0.0
1 6.76454584082484729e+01 0.0 0.0
1 -1.41105564154855614e+01 0.0 0.0
1 -5.74223426227686318e+00 0.0 0.0
1 -6.70633585560473620e+01 0.0 0.0
1 -3.14825249772592457e+01 0.0 0.0
1 5.30323209985082258e+01 0.0 0.0
8
Step 910
1 4.05453515042980115e+01 0.0 0.0
1 -7.83039264422008774e+00 0.0 0.0
1 6.79763203959277718e+01 0.0 0.0
1 -1.60171872371378790e+01 0.0 0.0
1 -1.52713685305169977e+00 0.0 0.0
1 -5.67267856193994007e+01 0.0 0.0
1 -2.86349735830502006e+01 0.0 0.0
1 4.38169519198170363e+01 0.0 0.0
8
Step 920
1 4.15220356654764515e+01 0.0 0.0
1 -1.09844010706813719e+01 0.0 0.0
1 6.76909608649920216e+01 0.0 0.0
1 -1.78537492054700415e+01 0.0 0.0
1 2.99145060391806394e+00 0.0 0.0
1 -4.60188956886471985e+01 0.0 0.0
1 -2.56029938271882536e+01 0.0 0.0
1 3.45047109936716225e+01 0.0 0.0
8
Step 930
1 4.16334674389879567e+01 0.0 0.0
1 -1.43870457946719181e+01 0.0 0.0
1 6.67782427653244213e+01 0.0 0.0
1 -1.95920867467331199e+01 0.0 0.0
1 7.76796619150457524e+00 0.0 0.0
1 -3.50673512320450982e+01 0.0 0.0
1 -2.24191698787891340e+01 0.0 0.0
1 2.52224849634679593e+01 0.0 0.0
8
Step 940
1 4.08912581529243155e+01 0.0 0.0
1 -1.79871468399204275e+01 0.0 0.0
1 6.52347806027254933e+01 0.0 0.0
1 -2.12052760090655177e+01 0.0 0.0
1 1.27520658735966617e+01 0.0 0.0
1 -2.40032246608156683e+01 0.0 0.0
1 -1.91168053414113892e+01 0.0 0.0
1 1.60940919024538154e+01 0.0 0.0
8
Step 950
1 3.93198091561142320e+01 0.0 0.0
1 -2.17293555146195310e+01 0.0 0.0
1 6.30651637054574223e+01 0.0 0.0
1 -2.26680187232811434e+01 0.0 0.0
1 1.78893632825826430e+01 0.0 0.0
1 -1.29591882215123082e+01 0.0 0.0
1 -1.57294640485021411e+01 0.0 0.0
1 7.23854021517413937e+00 0.0 0.0
8
Step 960
1 3.69558741509017921e+01 0.0 0.0
1 -2.55550247998873665e+01 0.0 0.0
1 6.02820437385104171e+01 0.0 0.0
1 -2.39570002130669870e+01 0.0 0.0
1 2.31222411997487463e+01 0.0 0.0
1 -2.06765796324217632e+00 0.0 0.0
1 -1.22905150493774062e+01 0.0 0.0
1 -1.23162186615483860e+00 0.0 0.0
8
Step 970
1 3.38479096007952194e+01 0.0 0.0
1 -2.94031369759720214e+01 0.0 0.0
1 5.69060843764113997e+01 0.0 0.0
1 -2.50512035164915048e+01 0.0 0.0
1 2.83907172705198398e+01 0.0 0.0
1 8.54106676360409800e+00 0.0 0.0
1 -8.83269214415493309e+00 0.0 0.0
1 -9.21183148868339075e+00 0.0 0.0
8
Step 980
1 3.00552294722136928e+01 0.0 0.0
1 -3.32112674622047521e+01 0.0 0.0
1 5.29657757373976210e+01 0.0 0.0
1 -2.59321734256721648e+01 0.0 0.0
1 3.36333448394412926e+01 0.0 0.0
1 1.87406269894429194e+01 0.0 0.0
1 -5.38767818097801676e+00 0.0 0.0
1 -1.66068802607228392e+01 0.0 0.0
8
Step 990
1 2.56469866865599947e+01 0.0 0.0
1 -3.69165630574551855e+01 0.0 0.0
1 4.84971205166882129e+01 0.0 0.0
1 -2.65842264958176031e+01 0.0 0.0
1 3.87881291937809038e+01 0.0 0.0
1 2.84103523657510202e+01 0.0 0.0
1 -1.98572352156537923e+00 0.0 0.0
1 -2.33321019832761962e+01 0.0 0.0
8
Step 1000
1 2.07010082379667892e+01 0.0 0.0
1 -4.04567132924508712e+01 0.0 0.0
1 4.35432023978303988e+01 0.0 0.0
1 -2.69946055110814065e+01 0.0 0.0
1 4.37934399907181628e+01 0.0 0.0
1 3.74369001721453145e+01 0.0 0.0
1 1.34469331398723635e+00 0.0 0.0
1 -2.93143605717633129e+01 0.0 0.0
8
Step 1010
1 1.53025137059302860e+01 0.0 0.0
1 -4.37708953119932147e+01 0.0 0.0
1 3.81536500064217989e+01 0.0 0.0
1 -2.71535792790764496e+01 0.0 0.0
1 4.85889021102814382e+01 0.0 0.0
1 4.57157577242010333e+01 0.0 0.0
1 4.57715665711727926e+00 0.0 0.0
1 -3.44928270674320245e+01 0.0 0.0
8
Step 1020
1 9.54274779355038127e+00 0.0 0.0
1 -4.68006753238752538e+01 0.0 0.0
1 3.23840112458424443e+01 0.0 0.0
1 -2.70544907134323331e+01 0.0 0.0
1 5.31162494219768035e+01 0.0 0.0
1 5.31525880972255749e+01 0.0 0.0
1 7.68755230575748438e+00 0.0 0.0
1 -3.88195419804542396e+01 0.0 0.0
8
Step 1030
1 3.51755667867830812e+00 0.0 0.0
1 -4.94908528296158394e+01 0.0 0.0
1 2.62950532950383149e+01 0.0 0.0
1 -2.66937577499525922e+01 0.0 0.0
1 5.73201287088460418e+01 0.0 0.0
1 5.96644064220423971e+01 0.0 0.0
1 1.06542518908087445e+01 0.0 0.0
1 -4.22597659496339162e+01 0.0 0.0
8
Step 1040
1 -2.67406432896379620e+00 0.0 0.0
1 -5.17902372159367914e+01 0.0 0.0
1 1.99520029594506951e+01 0.0 0.0