8
Step 0
1 1 -1.09067367372779542e-02 0.0 0.0
2 1 -4.67961831807546524e-03 0.0 0.0
3 1 -8.19805649101568667e-04 0.0 0.0
4 1 6.96871766609081979e-03 0.0 0.0
5 1 2.31758523046749279e-03 0.0 0.0
6 1 -8.99360229379241277e-04 0.0 0.0
7 1 4.01362602924990736e-03 0.0 0.0
8 1 -6.76540272703362363e-03 0.0 0.0
8
Step 10
1 1 -1.33117299939480137e-02 0.0 0.0
2 1 -2.33701948516362766e-03 0.0 0.0
3 1 -2.69165982553627899e-03 0.0 0.0
4 1 8.65508599924567391e-03 0.0 0.0
5 1 4.48205046147571898e-04 0.0 0.0
6 1 -3.04931865603521885e-03 0.0 0.0
7 1 1.35604830050986970e-03 0.0 0.0
8 1 -3.18979950060979374e-03 0.0 0.0
8
Step 20
1 1 -1.55289790392230710e-02 0.0 0.0
2 1 1.96927206249506928e-04 0.0 0.0
3 1 -4.63409871992708031e-03 0.0 0.0
4 1 1.03221764799956012e-02 0.0 0.0
5 1 -1.59317553316592575e-03 0.0 0.0
6 1 -5.25271932420311172e-03 0.0 0.0
7 1 -1.40305661781234704e-03 0.0 0.0
8 1 5.56067250592732153e-04 0.0 0.0
8
Step 30
1 1 -1.74010890501492127e-02 0.0 0.0
2 1 2.77645795256523586e-03 0.0 0.0
3 1 -6.52360458775653237e-03 0.0 0.0
4 1 1.18614069456822839e-02 0.0 0.0
5 1 -3.69037564431967929e-03 0.0 0.0
6 1 -7.37251740979549906e-03 0.0 0.0
7 1 -4.09304150129562519e-03 0.0 0.0
8 1 4.22852669794669331e-03 0.0 0.0
8
Step 40
1 1 -1.89099473546994086e-02 0.0 0.0
2 1 5.37527117394930899e-03 0.0 0.0
3 1 -8.33602693209799586e-03 0.0 0.0
4 1 1.32566291083679871e-02 0.0 0.0
5 1 -5.82188371874228696e-03 0.0 0.0
6 1 -9.38613129426231659e-03 0.0 0.0
7 1 -6.68434569965742093e-03 0.0 0.0
8 1 7.77215908429579848e-03 0.0 0.0
8
Step 50
1 1 -2.00423255249657997e-02 0.0 0.0
2 1 7.96547200217370514e-03 0.0 0.0
3 1 -1.00479355546842092e-02 0.0 0.0
4 1 1.44928751780300184e-02 0.0 0.0
5 1 -7.96479728431856958e-03 0.0 0.0
6 1 -1.12711294468475966e-02 0.0 0.0
7 1 -9.14821682602394264e-03 0.0 0.0
8 1 1.11325483580083564e-02 0.0 0.0
8
Step 60
1 1 -2.07901738971371167e-02 0.0 0.0
2 1 1.05176729325958587e-02 0.0 0.0
3 1 -1.16368892437121989e-02 0.0 0.0
4 1 1.55565363378984967e-02 0.0 0.0
5 1 -1.00949009602085520e-02 0.0 0.0
6 1 -1.30053900445332646e-02 0.0 0.0
7 1 -1.14568913585382376e-02 0.0 0.0
8 1 1.42568582802797949e-02 0.0 0.0
8
Step 70
1 1 -2.11509773586808572e-02 0.0 0.0
2 1 1.30012461499987141e-02 0.0 0.0
3 1 -1.30817967481215158e-02 0.0 0.0
4 1 1.64356171718871534e-02 0.0 0.0
5 1 -1.21868519251322593e-02 0.0 0.0
6 1 -1.45673901920514229e-02 0.0 0.0
7 1 -1.35838937449314374e-02 0.0 0.0
8 1 1.70945962702810685e-02 0.0 0.0
8
Step 80
1 1 -2.11281273848120815e-02 0.0 0.0
2 1 1.53847393408328755e-02 0.0 0.0
3 1 -1.43633559877564768e-02 0.0 0.0
4 1 1.71200513039586853e-02 0.0 0.0
5 1 -1.42144884447975763e-02 0.0 0.0
6 1 -1.59366258099978078e-02 0.0 0.0
7 1 -1.55044534892515452e-02 0.0 0.0
8 1 1.95985651333577919e-02 0.0 0.0
8
Step 90
1 1 -2.07312530393585215e-02 0.0 0.0
2 1 1.76364518963369639e-02 0.0 0.0
3 1 -1.54645462305188705e-02 0.0 0.0
4 1 1.76020531743077691e-02 0.0 0.0
5 1 -1.61512650578827972e-02 0.0 0.0
6 1 -1.70941443809791704e-02 0.0 0.0
7 1 -1.71960238017027228e-02 0.0 0.0
8 1 2.17259714573776533e-02 0.0 0.0
8
Step 100
1 1 -1.99764473240627537e-02 0.0 0.0
2 1 1.97251531433454107e-02 0.0 0.0
3 1 -1.63711398799672690e-02 0.0 0.0
4 1 1.78764729251077586e-02 0.0 0.0
5 1 -1.79708038877269480e-02 0.0 0.0
6 1 -1.80231549240009205e-02 0.0 0.0
7 1 -1.86388697429630337e-02 0.0 0.0
8 1 2.34396283624213539e-02 0.0 0.0
8
Step 110
1 1 -1.88863265625563194e-02 0.0 0.0
2 1 2.16209078637282191e-02 0.0 0.0
3 1 -1.70721946681585274e-02 0.0 0.0
4 1 1.79411171567119276e-02 0.0 0.0
5 1 -1.96475367849472671e-02 0.0 0.0
6 1 -1.87096661855764047e-02 0.0 0.0
7 1 -1.98166801569342396e-02 0.0 0.0
8 1 2.47091647587342964e-02 0.0 0.0
8
Step 120
1 1 -1.74898706091997543e-02 0.0 0.0
2 1 2.32959580844316061e-02 0.0 0.0
3 1 -1.75604836324826652e-02 0.0 0.0
4 1 1.77969985794520606e-02 0.0 0.0
5 1 -2.11573996439841372e-02 0.0 0.0
6 1 -1.91430970414303153e-02 0.0 0.0
7 1 -2.07171482949892287e-02 0.0 0.0
8 1 2.55121381966684352e-02 0.0 0.0
8
Step 130
1 1 -1.58220104484676147e-02 0.0 0.0
2 1 2.47255975912538915e-02 0.0 0.0
3 1 -1.78328206824885371e-02 0.0 0.0
4 1 1.74484825156361358e-02 0.0 0.0
5 1 -2.24785305245536887e-02 0.0 0.0
6 1 -1.93168032530600144e-02 0.0 0.0
7 1 -2.13324633182923676e-02 0.0 0.0
8 1 2.58349471200077126e-02 0.0 0.0
8
Step 140
1 1 -1.39229551169733224e-02 0.0 0.0
2 1 2.58889707205710029e-02 0.0 0.0
3 1 -1.78902451395817272e-02 0.0 0.0
4 1 1.69033075021296393e-02 0.0 0.0
5 1 -2.35919191152457117e-02 0.0 0.0
6 1 -1.92284718131045564e-02 0.0 0.0
7 1 -2.16596604112663238e-02 0.0 0.0
8 1 2.56734516823068706e-02 0.0 0.0
8
Step 150
1 1 -1.18372779629294950e-02 0.0 0.0
2 1 2.67697315242325928e-02 0.0 0.0
3 1 -1.77380394537721767e-02 0.0 0.0
4 1 1.61724698741236433e-02 0.0 0.0
5 1 -2.44819577003938110e-02 0.0 0.0
6 1 -1.88803470625427128e-02 0.0 0.0
7 1 -2.17007906465815324e-02 0.0 0.0
8 1 2.50332383054037502e-02 0.0 0.0
8
Step 160
1 1 -9.61280838991068753e-03 0.0 0.0
2 1 2.73565126338497881e-02 0.0 0.0
3 1 -1.73855690340478479e-02 0.0 0.0
4 1 1.52699762172291056e-02 0.0 0.0
5 1 -2.51368529742841545e-02 0.0 0.0
6 1 -1.82792697969865435e-02 0.0 0.0
7 1 -2.14628904905248830e-02 0.0 0.0
8 1 2.39294977469115717e-02 0.0 0.0
8
Step 170
1 1 -7.29939517479450718e-03 0.0 0.0
2 1 2.76431726117361241e-02 0.0 0.0
3 1 -1.68459494644581410e-02 0.0 0.0
4 1 1.42124804394150091e-02 0.0 0.0
5 1 -2.55488723662160994e-02 0.0 0.0
6 1 -1.74365294339733322e-02 0.0 0.0
7 1 -2.09577513627001479e-02 0.0 0.0
8 1 2.23865243643096741e-02 0.0 0.0
8
Step 180
1 1 -4.94761828526364775e-03 0.0 0.0
2 1 2.76288130712730798e-02 0.0 0.0
3 1 -1.61355618017942487e-02 0.0 0.0
4 1 1.30188317299760083e-02 0.0 0.0
5 1 -2.57144156773854958e-02 0.0 0.0
6 1 -1.63675474316651616e-02 0.0 0.0
7 1 -2.02015087054628409e-02 0.0 0.0
8 1 2.04368801685052143e-02 0.0 0.0
8
Step 190
1 1 -2.60752668583545287e-03 0.0 0.0
2 1 2.73175790984879173e-02 0.0 0.0
3 1 -1.52734492389258892e-02 0.0 0.0
4 1 1.17095647438920300e-02 0.0 0.0
5 1 -2.56339201514058576e-02 0.0 0.0
6 1 -1.50914249966521627e-02 0.0 0.0
7 1 -1.92140853385495657e-02 0.0 0.0
8 1 1.81202965458269021e-02 0.0 0.0
8
Step 200
1 1 -3.27470551865179430e-04 0.0 0.0
2 1 2.67182756631768117e-02 0.0 0.0
3 1 -1.42806373529088364e-02 0.0 0.0
4 1 1.03063642108619843e-02 0.0 0.0
5 1 -2.53116222011335427e-02 0.0 0.0
6 1 -1.36303976483138096e-02 0.0 0.0
7 1 -1.80185341967628206e-02 0.0 0.0
8 1 1.54824058783357681e-02 0.0 0.0
8
Step 210
1 1 1.84692020910452877e-03 0.0 0.0
2 1 2.58438468522524771e-02 0.0 0.0
3 1 -1.31794255871373594e-02 0.0 0.0
4 1 8.83153397003218904e-03 0.0 0.0
5 1 -2.47552100622698001e-02 0.0 0.0
6 1 -1.20092423455323907e-02 0.0 0.0
7 1 -1.66403302010775696e-02 0.0 0.0
8 1 1.25734027680452446e-02 0.0 0.0
8
Step 220
1 1 3.87357997470737063e-03 0.0 0.0
2 1 2.47107730284872526e-02 0.0 0.0
3 1 -1.19926996254122384e-02 0.0 0.0
4 1 7.30749647512972823e-03 0.0 0.0
5 1 -2.39754075244137423e-02 0.0 0.0
6 1 -1.02546797923812778e-02 0.0 0.0
7 1 -1.51066597877485900e-02 0.0 0.0
8 1 9.44672937763236555e-03 0.0 0.0
8
Step 230
1 1 5.71466418271024748e-03 0.0 0.0
2 1 2.33384430064081695e-02 0.0 0.0
3 1 -1.07433115612754343e-02 0.0 0.0
4 1 5.75634383787522203e-03 0.0 0.0
5 1 -2.29855292860708521e-02 0.0 0.0
6 1 -8.39480650681384208e-03 0.0 0.0
7 1 -1.34457499384031155e-02 0.0 0.0
8 1 6.15786188364709011e-03 0.0 0.0
8
Step 240
1 1 7.33702784827262866e-03 0.0 0.0
2 1 2.17485533360233518e-02 0.0 0.0
3 1 -9.45356467015939263e-03 0.0 0.0
4 1 4.19945546117439245e-03 0.0 0.0
5 1 -2.18010439160843499e-02 0.0 0.0
6 1 -6.45858022017826040e-03 0.0 0.0
7 1 -1.16862676666212913e-02 0.0 0.0
8 1 2.76324748528926053e-03 0.0 0.0
8
Step 250
1 1 8.71254870082322289e-03 0.0 0.0
2 1 1.99645744271707247e-02 0.0 0.0
3 1 -8.14482140949699708e-03 0.0 0.0
4 1 2.65719004179479877e-03 0.0 0.0
5 1 -2.04391721446013953e-02 0.0 0.0
6 1 -4.47537029642307814e-03 0.0 0.0
7 1 -9.85680781569038024e-03 0.0 0.0
8 1 -6.80590884098022670e-04 0.0 0.0
8
Step 260
1 1 9.81832577225679251e-03 0.0 0.0
2 1 1.80113054546772594e-02 0.0 0.0
3 1 -6.83723120053587961e-03 0.0 0.0
4 1 1.14865164454634478e-03 0.0 0.0
5 1 -1.89185379224356479e-02 0.0 0.0
6 1 -2.47457404146166201e-03 0.0 0.0
7 1 -7.98547398876640717e-03 0.0 0.0
8 1 -4.11779452877828953e-03 0.0 0.0
8
Step 270
1 1 1.06367862584033305e-02 0.0 0.0
2 1 1.59145213264872826e-02 0.0 0.0
3 1 -5.54955601360304206e-03 0.0 0.0
4 1 -3.08477964249797285e-04 0.0 0.0
5 1 -1.72588790185730402e-02 0.0 0.0
6 1 -4.85291520023557201e-04 0.0 0.0
7 1 -6.09954641717975945e-03 0.0 0.0
8 1 -7.49378647713630757e-03 0.0 0.0
8
Step 280
1 1 1.11557302128894968e-02 0.0 0.0
2 1 1.37007001052991788e-02 0.0 0.0
3 1 -4.29906207155632877e-03 0.0 0.0
4 1 -1.69805389145323820e-03 0.0 0.0
5 1 -1.54808142036699861e-02 0.0 0.0
6 1 1.46395335999351009e-03 0.0 0.0
7 1 -4.22522276422859604e-03 0.0 0.0
8 1 -1.07558084396890893e-02 0.0 0.0
8
Step 290
1 1 1.13683353338161711e-02 0.0 0.0
2 1 1.13968102426389630e-02 0.0 0.0
3 1 -3.10144558866619086e-03 0.0 0.0
4 1 -3.00554506059399562e-03 0.0 0.0
5 1 -1.36056562843676638e-02 0.0 0.0
6 1 3.34545932570921509e-03 0.0 0.0
7 1 -2.38741363356858140e-03 0.0 0.0
8 1 -1.38534184025973783e-02 0.0 0.0
8
Step 300
1 1 1.12731343256383034e-02 0.0 0.0
2 1 9.03013334471084068e-03 0.0 0.0
3 1 -1.97076689210733819e-03 0.0 0.0
4 1 -4.21808830383997233e-03 0.0 0.0
5 1 -1.16552551295918076e-02 0.0 0.0
6 1 5.13257502566552386e-03 0.0 0.0
7 1 -6.09573671772592712e-04 0.0 0.0
8 1 -1.67389820370604896e-02 0.0 0.0
8
Step 310
1 1 1.08739667972943630e-02 0.0 0.0
2 1 6.62809843298085410e-03 0.0 0.0
3 1 -9.19377479446515451e-04 0.0 0.0
4 1 -5.32453147377354510e-03 0.0 0.0
5 1 -9.65185280930979522e-03 0.0 0.0
6 1 6.79991907075938769e-03 0.0 0.0
7 1 1.08644895632163912e-03 0.0 0.0
8 1 -1.93681786847127724e-02 0.0 0.0
8
Step 320
1 1 1.01798981340200899e-02 0.0 0.0
2 1 4.21810638134214808e-03 0.0 0.0
3 1 4.21645138563509075e-05 0.0 0.0
4 1 -6.31547325797630205e-03 0.0 0.0
5 1 -7.61793406059398191e-03 0.0 0.0
6 1 8.32360353516021535e-03 0.0 0.0
7 1 2.68055802775659085e-03 0.0 0.0
8 1 -2.17005285805823983e-02 0.0 0.0
8
Step 330
1 1 9.20509077357146814e-03 0.0 0.0
2 1 1.82732746940793560e-03 0.0 0.0
3 1 9.05186377912469754e-04 0.0 0.0
4 1 -7.18330278210026641e-03 0.0 0.0
5 1 -5.57605889756049300e-03 0.0 0.0
6 1 9.68146984878219714e-03 0.0 0.0
7 1 4.15455782541227468e-03 0.0 0.0
8 1 -2.36999348784966805e-02 0.0 0.0
8
Step 340
1 1 7.96860984874647911e-03 0.0 0.0
2 1 -5.17539631648843926e-04 0.0 0.0
3 1 1.66299215847569271e-03 0.0 0.0
4 1 -7.92223776525701438e-03 0.0 0.0
5 1 -3.54866913575634579e-03 0.0 0.0
6 1 1.08533423276559963e-02 0.0 0.0
7 1 5.49230738835112132e-03 0.0 0.0
8 1 -2.53352239326663127e-02 0.0 0.0
8
Step 350
1 1 6.49414554194152616e-03 0.0 0.0
2 1 -2.79055262122868998e-03 0.0 0.0
3 1 2.31094487511509811e-03 0.0 0.0
4 1 -8.52835639844054007e-03 0.0 0.0
5 1 -1.55786569448138784e-03 0.0 0.0
6 1 1.18212984245483418e-02 0.0 0.0
7 1 6.67987771795268068e-03 0.0 0.0
8 1 -2.65806609433420979e-02 0.0 0.0
8
Step 360
1 1 4.80963834025521873e-03 0.0 0.0
2 1 -4.96685156229496449e-03 0.0 0.0
3 1 2.84653268060468733e-03 0.0 0.0
4 1 -8.99961546573996643e-03 0.0 0.0
5 1 3.74841916962746562e-04 0.0 0.0
6 1 1.25699474655728699e-02 0.0 0.0
7 1 7.70570478647470206e-03 0.0 0.0
8 1 -2.74164152225217575e-02 0.0 0.0
8
Step 370
1 1 2.94679981154199978e-03 0.0 0.0
2 1 -7.02301523755070531e-03 0.0 0.0
3 1 3.26941220615026328e-03 0.0 0.0
4 1 -9.33584558649920918e-03 0.0 0.0
5 1 2.22880857131486790e-03 0.0 0.0
6 1 1.30867037234785877e-02 0.0 0.0
7 1 8.56072813907417934e-03 0.0 0.0
8 1 -2.78289492525904888e-02 0.0 0.0
8
Step 380
1 1 9.40529604305894882e-04 0.0 0.0
2 1 -8.93742965325345848e-03 0.0 0.0
3 1 3.58142066181305323e-03 0.0 0.0
4 1 -9.53871402910851443e-03 0.0 0.0
5 1 3.98454007950494165e-03 0.0 0.0
6 1 1.33620371302258182e-02 0.0 0.0
7 1 9.23850347498815505e-03 0.0 0.0
8 1 -2.78113077423473611e-02 0.0 0.0
8
Step 390
1 1 -1.17176151176264886e-03 0.0 0.0
2 1 -1.06906463887222348e-02 0.0 0.0
3 1 3.78654669767161580e-03 0.0 0.0
4 1 -9.61164703964946174e-03 0.0 0.0
5 1 5.62398157003160537e-03 0.0 0.0
6 1 1.33896859045498171e-02 0.0 0.0
7 1 9.73527786569581763e-03 0.0 0.0
8 1 -2.73632865913236885e-02 0.0 0.0
8
Step 400
1 1 -3.35090302833517114e-03 0.0 0.0
2 1 -1.22657088545443018e-02 0.0 0.0
3 1 3.89085106278005011e-03 0.0 0.0
4 1 -9.55970811823506593e-03 0.0 0.0
5 1 7.13079428282701114e-03 0.0 0.0
6 1 1.31668184473168713e-02 0.0 0.0
7 1 1.00500179602395403e-02 0.0 0.0
8 1 -2.64914665713530464e-02 0.0 0.0
8
Step 410
1 1 -5.55676185643381657e-03 0.0 0.0
2 1 -1.36484281303546617e-02 0.0 0.0
3 1 3.90233227555406752e-03 0.0 0.0
4 1 -9.38943629209827539e-03 0.0 0.0
5 1 8.49060747692810883e-03 0.0 0.0
6 1 1.26941352055312141e-02 0.0 0.0
7 1 1.01843842094107868e-02 0.0 0.0
8 1 -2.52091019683589740e-02 0.0 0.0
8
Step 420
1 1 -7.74905085869364088e-03 0.0 0.0
2 1 -1.48275942303744777e-02 0.0 0.0
3 1 3.83073818090646145e-03 0.0 0.0
4 1 -9.10865661561095080e-03 0.0 0.0
5 1 9.69123387857934518e-03 0.0 0.0
6 1 1.19759038951720263e-02 0.0 0.0
7 1 1.01426474881384648e-02 0.0 0.0
8 1 -2.35358602937538602e-02 0.0 0.0
8
Step 430
1 1 -9.88811469619654826e-03 0.0 0.0
2 1 -1.57951119630572387e-02 0.0 0.0
3 1 3.68732923521812020e-03 0.0 0.0
4 1 -8.72627940188159569e-03 0.0 0.0
5 1 1.07228397420249203e-02 0.0 0.0
6 1 1.10199242059282349e-02 0.0 0.0
7 1 9.93154844881207616e-03 0.0 0.0
8 1 -2.14974165736211767e-02 0.0 0.0
8
Step 440
1 1 -1.19356650923910460e-02 0.0 0.0
2 1 -1.65460540514636885e-02 0.0 0.0
3 1 3.48460248802408799e-03 0.0 0.0
4 1 -8.25210285465461692e-03 0.0 0.0
5 1 1.15780636041263336e-02 0.0 0.0
6 1 9.83742226054224594e-03 0.0 0.0
7 1 9.56010436980109929e-03 0.0 0.0
8 1 -1.91249155113611992e-02 0.0 0.0
8
Step 450
1 1 -1.38554461800703375e-02 0.0 0.0
2 1 -1.70786294210049892e-02 0.0 0.0
3 1 3.23598662912204888e-03 0.0 0.0
4 1 -7.69662831619130194e-03 0.0 0.0
5 1 1.22520811228575086e-02 0.0 0.0
6 1 8.44288067861167883e-03 0.0 0.0
7 1 9.03937254009020905e-03 0.0 0.0
8 1 -1.64543253775584694e-02 0.0 0.0
8
Step 460
1 1 -1.56138183691437744e-02 0.0 0.0
2 1 -1.73940713858329009e-02 0.0 0.0
3 1 2.95551881614068181e-03 0.0 0.0
4 1 -7.07089235808738316e-03 0.0 0.0
5 1 1.27426169710577655e-02 0.0 0.0
6 1 6.85381532902133717e-03 0.0 0.0
7 1 8.38218238773572391e-03 0.0 0.0
8 1 -1.35257153694617969e-02 0.0 0.0
8
Step 470
1 1 -1.71802553503279526e-02 0.0 0.0
2 1 -1.74964573509121570e-02 0.0 0.0
3 1 2.65751390627771934e-03 0.0 0.0
4 1 -6.38631706521670083e-03 0.0 0.0
5 1 1.30499081992133999e-02 0.0 0.0
6 1 5.09051286391707866e-03 0.0 0.0
7 1 7.60284994269635160e-03 0.0 0.0
8 1 -1.03824909873866372e-02 0.0 0.0
8
Step 480
1 1 -1.85277539917520148e-02 0.0 0.0
2 1 -1.73924772175968953e-02 0.0 0.0
3 1 2.35623652460269619e-03 0.0 0.0
4 1 -5.65457824869880499e-03 0.0 0.0
5 1 1.31766261782616662e-02 0.0 0.0
6 1 3.17574326262430075e-03 0.0 0.0
7 1 6.71688770786619226e-03 0.0 0.0
8 1 -7.07061960588270793e-03 0.0 0.0
8
Step 490
1 1 -1.96331613094621223e-02 0.0 0.0
2 1 -1.70911711508262600e-02 0.0 0.0
3 1 2.06558609256010228e-03 0.0 0.0
4 1 -4.88748979536526244e-03 0.0 0.0
5 1 1.31277657573133453e-02 0.0 0.0
6 1 1.13445933597206743e-03 0.0 0.0
7 1 5.74072090006277902e-03 0.0 0.0
8 1 -3.63787224622556023e-03 0.0 0.0
8
Step 500
1 1 -2.04774261242010487e-02 0.0 0.0
2 1 -1.66036580883064874e-02 0.0 0.0
3 1 1.79880408550102812e-03 0.0 0.0
4 1 -4.09690062338701009e-03 0.0 0.0
5 1 1.29105105009122683e-02 0.0 0.0
6 1 -1.00650867207464998e-03 0.0 0.0
7 1 4.69141784894275878e-03 0.0 0.0
8 1 -1.33099293552891787e-04 0.0 0.0
8
Step 510
1 1 -2.10457849968552803e-02 0.0 0.0
2 1 -1.59428737479463678e-02 0.0 0.0
3 1 1.56821077380023938e-03 0.0 0.0
4 1 -3.29459916812181470e-03 0.0 0.0
5 1 1.25340819246556549e-02 0.0 0.0
6 1 -3.21875972335414814e-03 0.0 0.0
7 1 3.58643876518528878e-03 0.0 0.0
8 1 3.39445087121412669e-03 0.0 0.0
8
Step 520
1 1 -2.13278922852231934e-02 0.0 0.0
2 1 -1.51233310276638194e-02 0.0 0.0
3 1 1.38497535958306741e-03 0.0 0.0
4 1 -2.49221947038684400e-03 0.0 0.0
5 1 1.20095787937841442e-02 0.0 0.0
6 1 -5.47263057699819665e-03 0.0 0.0
7 1 2.44340378397192104e-03 0.0 0.0
8 1 6.89576929943871032e-03 0.0 0.0
8
Step 530
1 1 -2.13179027091535168e-02 0.0 0.0
2 1 -1.41609079783376300e-02 0.0 0.0
3 1 1.25891953888066237e-03 0.0 0.0
4 1 -1.70114306702777332e-03 0.0 0.0
5 1 1.13498101462507599e-02 0.0 0.0
6 1 -7.73751066976104303e-03 0.0 0.0
7 1 1.27987868351834449e-03 0.0 0.0
8 1 1.03226850898785402e-02 0.0 0.0
8
Step 540
1 1 -2.10145119566923534e-02 0.0 0.0
2 1 -1.30726611656752454e-02 0.0 0.0
3 1 1.19835154060453646e-03 0.0 0.0
4 1 -9.32392085840955207e-04 0.0 0.0
5 1 1.05691231561075866e-02 0.0 0.0
6 1 -9.98216996927900335e-03 0.0 0.0
7 1 1.13175216530086843e-04 0.0 0.0
8 1 1.36284341871497228e-02 0.0 0.0
8
Step 550
1 1 -2.04209571279765148e-02 0.0 0.0
2 1 -1.18766570031230995e-02 0.0 0.0
3 1 1.20992673968719285e-03 0.0 0.0
4 1 -1.96511158675864023e-04 0.0 0.0
5 1 9.68322466098927095e-03 0.0 0.0
6 1 -1.21751071974107623e-02 0.0 0.0
7 1 -1.03983747706926847e-03 0.0 0.0
8 1 1.67682088238177325e-02 0.0 0.0
8
Step 560
1 1 -1.95449748264005171e-02 0.0 0.0
2 1 -1.05918111136802245e-02 0.0 0.0
3 1 1.29853209234741360e-03 0.0 0.0
4 1 4.96561378120352159e-04 0.0 0.0
5 1 8.70899346889353679e-03 0.0 0.0
6 1 -1.42849247759489692e-02 0.0 0.0
7 1 -2.16291361897099146e-03 0.0 0.0
8 1 1.96996971301322092e-02 0.0 0.0
8
Step 570
1 1 -1.83987111100505779e-02 0.0 0.0
2 1 -9.23772554771019015e-03 0.0 0.0
3 1 1.46719405387144095e-03 0.0 0.0
4 1 1.13762973827125817e-03 0.0 0.0
5 1 7.66427966267078150e-03 0.0 0.0
6 1 -1.62807341987478149e-02 0.0 0.0
7 1 -3.24060614786827062e-03 0.0 0.0
8 1 2.23836191415366995e-02 0.0 0.0
8
Step 580
1 1 -1.69985748826982780e-02 0.0 0.0
2 1 -7.83451500804048170e-03 0.0 0.0
3 1 1.71701218906248503e-03 0.0 0.0
4 1 1.71837914968317527e-03 0.0 0.0
5 1 6.56768714932796146e-03 0.0 0.0
6 1 -1.81325916828495824e-02 0.0 0.0
7 1 -4.25843797531103713e-03 0.0 0.0
8 1 2.47842600440521393e-02 0.0 0.0
8
Step 590
1 1 -1.53650250814656632e-02 0.0 0.0
2 1 -6.40261550242908831e-03 0.0 0.0
3 1 2.04712252480415647e-03 0.0 0.0
4 1 2.23151040296477692e-03 0.0 0.0
5 1 5.43833665181466929e-03 0.0 0.0
6 1 -1.98119594318793418e-02 0.0 0.0
7 1 -5.20306900422317677e-03 0.0 0.0
8 1 2.68699947178508529e-02 0.0 0.0
8
Step 600
1 1 -1.35222825014313010e-02 0.0 0.0
2 1 -4.96257165118540317e-03 0.0 0.0
3 1 2.45469543592580523e-03 0.0 0.0
4 1 2.67086435350124673e-03 0.0 0.0
5 1 4.29560809428821116e-03 0.0 0.0
6 1 -2.12921832036780945e-02 0.0 0.0
7 1 -6.06245713991700793e-03 0.0 0.0
8 1 2.86137905931305656e-02 0.0 0.0
8
Step 610
1 1 -1.14979594098029731e-02 0.0 0.0
2 1 -3.53480191483772311e-03 0.0 0.0
3 1 2.93497246846682446e-03 0.0 0.0
4 1 3.03153063944874976e-03 0.0 0.0
5 1 3.15886366355572516e-03 0.0 0.0
6 1 -2.25489726006096423e-02 0.0 0.0
7 1 -6.82600985020914881e-03 0.0 0.0
8 1 2.99936697613137036e-02 0.0 0.0
8
Step 620
1 1 -9.32260419805301145e-03 0.0 0.0
2 1 -2.13934395128254941e-03 0.0 0.0
3 1 3.48134514158859225e-03 0.0 0.0
4 1 3.30993533033325377e-03 0.0 0.0
5 1 2.04715543343273083e-03 0.0 0.0
6 1 -2.35608670306600120e-02 0.0 0.0
7 1 -7.48472135265702831e-03 0.0 0.0
8 1 3.09931072227264681e-02 0.0 0.0
8
Step 630
1 1 -7.02916399365175176e-03 0.0 0.0
2 1 -7.95584803474430982e-04 0.0 0.0
3 1 4.08547667121953589e-03 0.0 0.0
4 1 3.50390267564240718e-03 0.0 0.0
5 1 9.78923965454103848e-04 0.0 0.0
6 1 -2.43096680242778605e-02 0.0 0.0
7 1 -8.03128947377373947e-03 0.0 0.0
8 1 3.16013407756844666e-02 0.0 0.0
8
Step 640
1 1 -4.65237502743405355e-03 0.0 0.0
2 1 4.78017658366468453e-04 0.0 0.0
3 1 4.73746503332845171e-03 0.0 0.0
4 1 3.61268672685251258e-03 0.0 0.0
5 1 -2.83035947985564536e-05 0.0 0.0
6 1 -2.47808179012719253e-02 0.0 0.0
7 1 -8.46020583709136340e-03 0.0 0.0
8 1 3.18135696955670760e-02 0.0 0.0
8
Step 650
1 1 -2.22809799845841193e-03 0.0 0.0
2 1 1.66421474890840254e-03 0.0 0.0
3 1 5.42604320328226187e-03 0.0 0.0
4 1 3.63696956903025465e-03 0.0 0.0
5 1 -9.58206003090415911e-04 0.0 0.0
6 1 -2.49637059371774356e-02 0.0 0.0
7 1 -8.76781340245891098e-03 0.0 0.0
8 1 3.16310240451585789e-02 0.0 0.0
8
Step 660
1 1 2.07377359344414756e-04 0.0 0.0
2 1 2.74724080003080741e-03 0.0 0.0
3 1 6.13881016062587520e-03 0.0 0.0
4 1 3.57882439595991024e-03 0.0 0.0
5 1 -1.79594053184650672e-03 0.0 0.0
6 1 -2.48518862771302564e-02 0.0 0.0
7 1 -8.95232650634467109e-03 0.0 0.0
8 1 3.10608938565051888e-02 0.0 0.0
8
Step 670
1 1 2.61802940015930501e-03 0.0 0.0
2 1 3.71307265876982253e-03 0.0 0.0
3 1 6.86248465426817899e-03 0.0 0.0
4 1 3.44164377272478681e-03 0.0 0.0
5 1 -2.52838565616736845e-03 0.0 0.0
6 1 -2.44431967320210934e-02 0.0 0.0
7 1 -9.01381036411258788e-03 0.0 0.0
8 1 3.01161166556355511e-02 0.0 0.0
8
Step 680
1 1 4.96877314833260846e-03 0.0 0.0
2 1 4.54966546084927415e-03 0.0 0.0
3 1 7.58317292347427101e-03 0.0 0.0
4 1 3.23003602936543927e-03 0.0 0.0
5 1 -3.14434502528772915e-03 0.0 0.0
6 1 -2.37397738213850525e-02 0.0 0.0
7 1 -8.95411933934063542e-03 0.0 0.0
8 1 2.88150314245004258e-02 0.0 0.0
8
Step 690
1 1 7.22607362754673199e-03 0.0 0.0
2 1 5.24715374306386918e-03 0.0 0.0
3 1 8.28664149964681435e-03 0.0 0.0
4 1 2.94969539812874005e-03 0.0 0.0
5 1 -3.63470601704282302e-03 0.0 0.0
6 1 -2.27479662971989544e-02 0.0 0.0
7 1 -8.77679593150440703e-03 0.0 0.0
8 1 2.71809154824528901e-02 0.0 0.0
8
Step 700
1 1 9.35848443546987915e-03 0.0 0.0
2 1 5.79800655988559500e-03 0.0 0.0
3 1 8.95858670462498959e-03 0.0 0.0
4 1 2.60725359415052340e-03 0.0 0.0
5 1 -3.99254895016039162e-03 0.0 0.0
6 1 -2.14781560419380381e-02 0.0 0.0
7 1 -8.48693505996263135e-03 0.0 0.0
8 1 2.52414268209024580e-02 0.0 0.0
8
Step 710
1 1 1.13371005528979194e-02 0.0 0.0
2 1 6.19712743166811984e-03 0.0 0.0
3 1 9.58489340512465662e-03 0.0 0.0
4 1 2.21012147204413187e-03 0.0 0.0
5 1 -4.21320624441900212e-03 0.0 0.0
6 1 -1.99445008485848070e-02 0.0 0.0
7 1 -8.09102045458592010e-03 0.0 0.0
8 1 2.30279779671291179e-02 0.0 0.0
8
Step 720
1 1 1.31359218834155838e-02 0.0 0.0
2 1 6.44189468856145534e-03 0.0 0.0
3 1 1.01518769728985037e-02 0.0 0.0
4 1 1.76632899356281357e-03 0.0 0.0
5 1 -4.29427401245150494e-03 0.0 0.0
6 1 -1.81646174987545317e-02 0.0 0.0
7 1 -7.59674147743840712e-03 0.0 0.0
8 1 2.05750688747588541e-02 0.0 0.0
8
Step 730
1 1 1.47321296684607764e-02 0.0 0.0
2 1 6.53214361851599517e-03 0.0 0.0
3 1 1.06465042099422764e-02 0.0 0.0
4 1 1.28437027478824355e-03 0.0 0.0
5 1 -4.23558119599848782e-03 0.0 0.0
6 1 -1.61592253649946657e-02 0.0 0.0
7 1 -7.01279932079216205e-03 0.0 0.0
8 1 1.79196059159585849e-02 0.0 0.0
8
Step 740
1 1 1.61062820099045802e-02 0.0 0.0
2 1 6.47009697104274258e-03 0.0 0.0
3 1 1.10565910650215395e-02 0.0 0.0
4 1 7.73058419472466172e-04 0.0 0.0
5 1 -4.03912303195907638e-03 0.0 0.0
6 1 -1.39517703778757017e-02 0.0 0.0
7 1 -6.34871125147343576e-03 0.0 0.0
8 1 1.51002317608764682e-02 0.0 0.0
8
Step 750
1 1 1.72424377601814310e-02 0.0 0.0
2 1 6.26025369894596655e-03 0.0 0.0
3 1 1.13709770118753679e-02 0.0 0.0
4 1 2.41392646380159624e-04 0.0 0.0
5 1 -3.70896625633783958e-03 0.0 0.0
6 1 -1.15680468029549389e-02 0.0 0.0
7 1 -5.61462052606480355e-03 0.0 0.0
8 1 1.21566867860008598e-02 0.0 0.0
8
Step 760
1 1 1.81282201529541533e-02 0.0 0.0
2 1 5.90924710577392896e-03 0.0 0.0
3 1 1.15796776931232255e-02 0.0 0.0
4 1 -3.01561776605314773e-04 0.0 0.0
5 1 -3.25113319049187294e-03 0.0 0.0
6 1 -9.03583029315429762e-03 0.0 0.0
7 1 -4.82111798630341110e-03 0.0 0.0
8 1 9.12921702388128954e-03 0.0 0.0
8
Step 770
1 1 1.87548325970139582e-02 0.0 0.0
2 1 5.42568310252306008e-03 0.0 0.0
3 1 1.16740186522579000e-02 0.0 0.0
4 1 -8.46781857141192451e-04 0.0 0.0
5 1 -2.67347096931089007e-03 0.0 0.0
6 1 -6.38453071635981719e-03 0.0 0.0
7 1 -3.97907939506458343e-03 0.0 0.0
8 1 6.05803726792476793e-03 0.0 0.0
8
Step 780
1 1 1.91170388853132596e-02 0.0 0.0
2 1 4.81996753376498239e-03 0.0 0.0
3 1 1.16467535794218969e-02 0.0 0.0
4 1 -1.38538558420838831e-03 0.0 0.0
5 1 -1.98551089749182674e-03 0.0 0.0
6 1 -3.64486798236115248e-03 0.0 0.0
7 1 -3.09952053291323495e-03 0.0 0.0
8 1 2.98285161389869958e-03 0.0 0.0
8
Step 790
1 1 1.92131186882978991e-02 0.0 0.0
2 1 4.10412899507569054e-03 0.0 0.0
3 1 1.14921704655701253e-02 0.0 0.0
4 1 -1.90872365129249300e-03 0.0 0.0
5 1 -1.19832141271340167e-03 0.0 0.0
6 1 -8.48569159446909424e-04 0.0 0.0
7 1 -2.19347016492047603e-03 0.0 0.0
8 1 -5.75718114348081615e-05 0.0 0.0
8
Step 800
1 1 1.90448067953803667e-02 0.0 0.0
2 1 3.29164069312220522e-03 0.0 0.0
3 1 1.12061884234964885e-02 0.0 0.0
4 1 -2.40846684309786382e-03 0.0 0.0
5 1 -3.24356503347337588e-04 0.0 0.0
6 1 1.97191888605046436e-03 0.0 0.0
7 1 -1.27185938429601230e-03 0.0 0.0
8 1 -3.02577939485091946e-03 0.0 0.0
8
Step 810
1 1 1.86172214437112758e-02 0.0 0.0
2 1 2.39724212861663726e-03 0.0 0.0
3 1 1.07864467610368654e-02 0.0 0.0
4 1 -2.87669132238600527e-03 0.0 0.0
5 1 6.22700206083201080e-04 0.0 0.0
6 1 4.78370991780305635e-03 0.0 0.0
7 1 -3.45424660846764401e-04 0.0 0.0
8 1 -5.88597391485198764e-03 0.0 0.0
8
Step 820
1 1 1.79387835757464503e-02 0.0 0.0
2 1 1.43675908075167392e-03 0.0 0.0
3 1 1.02323863016743569e-02 0.0 0.0
4 1 -3.30596334472181086e-03 0.0 0.0
5 1 1.62809696533848221e-03 0.0 0.0
6 1 7.55376184242910042e-03 0.0 0.0
7 1 5.75378776553781435e-04 0.0 0.0
8 1 -8.60433071144356409e-03 0.0 0.0
8
Step 830
1 1 1.70211253475835399e-02 0.0 0.0
2 1 4.26918802562328153e-04 0.0 0.0
3 1 9.54532112802730127e-03 0.0 0.0
4 1 -3.68942405816607370e-03 0.0 0.0
5 1 2.67618339867696682e-03 0.0 0.0
6 1 1.02491733483598586e-02 0.0 0.0
7 1 1.48045681245399406e-03 0.0 0.0
8 1 -1.11492983663972391e-02 0.0 0.0
8
Step 840
1 1 1.58789830160635526e-02 0.0 0.0
2 1 -6.14843378510210379e-04 0.0 0.0
3 1 8.72849711893372224e-03 0.0 0.0
4 1 -4.02087413674401956e-03 0.0 0.0
5 1 3.75059099656603525e-03 0.0 0.0
6 1 1.28375024241103378e-02 0.0 0.0
7 1 2.36015293746192527e-03 0.0 0.0
8 1 -1.34918919307711709e-02 0.0 0.0
8
Step 850
1 1 1.45300668054483099e-02 0.0 0.0
2 1 -1.67058974150937375e-03 0.0 0.0
3 1 7.78713212313131373e-03 0.0 0.0
4 1 -4.29485713520219494e-03 0.0 0.0
5 1 4.83442756934286937e-03 0.0 0.0
6 1 1.52871130513251869e-02 0.0 0.0
7 1 3.20532412430070239e-03 0.0 0.0
8 1 -1.56059834083970388e-02 0.0 0.0
8
Step 860
1 1 1.29948988087378470e-02 0.0 0.0
2 1 -2.72210099169070772e-03 0.0 0.0
3 1 6.72843159141891731e-03 0.0 0.0
4 1 -4.50673967794002275e-03 0.0 0.0
5 1 5.91048793538299228e-03 0.0 0.0
6 1 1.75675529178493522e-02 0.0 0.0
7 1 4.00741794899307953e-03 0.0 0.0
8 1 -1.74685901123390434e-02 0.0 0.0
8
Step 870
1 1 1.12966096585505257e-02 0.0 0.0
2 1 -3.75111370774681768e-03 0.0 0.0
3 1 5.56157313703676062e-03 0.0 0.0
4 1 -4.65278592425617376e-03 0.0 0.0
5 1 6.96148181939532009e-03 0.0 0.0
6 1 1.96499607928785174e-02 0.0 0.0
7 1 4.75855170635438446e-03 0.0 0.0
8 1 -1.90601571059256687e-02 0.0 0.0
8
Step 880
1 1 9.46068573111205971e-03 0.0 0.0
2 1 -4.73957416411675218e-03 0.0 0.0
3 1 4.29765389515379247e-03 0.0 0.0
4 1 -4.73022321030570989e-03 0.0 0.0
5 1 7.97027818830279774e-03 0.0 0.0
6 1 2.15074975788468112e-02 0.0 0.0
7 1 5.45159304364009004e-03 0.0 0.0
8 1 -2.03648257171541759e-02 0.0 0.0
8
Step 890
1 1 7.51466099341844152e-03 0.0 0.0
2 1 -5.66990630540010771e-03 0.0 0.0
3 1 2.94959571596692350e-03 0.0 0.0
4 1 -4.73729540556450546e-03 0.0 0.0
5 1 8.92016325389631548e-03 0.0 0.0
6 1 2.31157904299905369e-02 0.0 0.0
7 1 6.08024040583091206e-03 0.0 0.0
8 1 -2.13706765844783632e-02 0.0 0.0
8
Step 900
1 1 5.48775107937553904e-03 0.0 0.0
2 1 -6.52528958078349083e-03 0.0 0.0
3 1 1.53200508840713439e-03 0.0 0.0
4 1 -4.67330040829129489e-03 0.0 0.0
5 1 9.79510734800036545e-03 0.0 0.0
6 1 2.44533752030606510e-02 0.0 0.0
7 1 6.63910046593752315e-03 0.0 0.0
8 1 -2.20699333232038108e-02 0.0 0.0
8
Step 910
1 1 3.41043145814273925e-03 0.0 0.0
2 1 -7.28994032579875165e-03 0.0 0.0
3 1 6.09871138777819642e-05 0.0 0.0
4 1 -4.53860841004104145e-03 0.0 0.0
5 1 1.05800340505130472e-02 0.0 0.0
6 1 2.55021193900469359e-02 0.0 0.0
7 1 7.12375882101010625e-03 0.0 0.0
8 1 -2.24591120550799370e-02 0.0 0.0
8
Step 920
1 1 1.31396620011660728e-03 0.0 0.0
2 1 -7.94938859100057134e-03 0.0 0.0
3 1 -1.44608438258224240e-03 0.0 0.0
4 1 -4.33465812874086164e-03 0.0 0.0
5 1 1.12610835254920473e-02 0.0 0.0
6 1 2.62476060187453106e-02 0.0 0.0
7 1 7.53083967875372174e-03 0.0 0.0
8 1 -2.25391028963563694e-02 0.0 0.0
8
Step 930
1 1 -7.70101655928546861e-04 0.0 0.0
2 1 -8.49074098448672314e-03 0.0 0.0
3 1 -2.97083567823792265e-03 0.0 0.0
4 1 -4.06392914542604879e-03 0.0 0.0
5 1 1.18258611620784687e-02 0.0 0.0
6 1 2.66794590967450000e-02 0.0 0.0
7 1 7.85805012973734250e-03 0.0 0.0
8 1 -2.23151719965939722e-02 0.0 0.0
8
Step 940
1 1 -2.81048330486188564e-03 0.0 0.0
2 1 -8.90291945393705507e-03 0.0 0.0
3 1 -4.49419338375656174e-03 0.0 0.0
4 1 -3.72988973212595547e-03 0.0 0.0
5 1 1.22636624455501053e-02 0.0 0.0
6 1 2.67915931239009926e-02 0.0 0.0
7 1 8.10420494885101192e-03 0.0 0.0
8 1 -2.17968765764469177e-02 0.0 0.0
8
Step 950
1 1 -4.77668343549699816e-03 0.0 0.0
2 1 -9.17686618643118526e-03 0.0 0.0
3 1 -5.99670645367793385e-03 0.0 0.0
4 1 -3.33692102735243549e-03 0.0 0.0
5 1 1.25656655624047514e-02 0.0 0.0
6 1 2.65823728901314893e-02 0.0 0.0
7 1 8.26922869690265364e-03 0.0 0.0
8 1 -2.09978901724371218e-02 0.0 0.0
8
Step 960
1 1 -6.63952683876671904e-03 0.0 0.0
2 1 -9.30570605329116528e-03 0.0 0.0
3 1 -7.45887898836513231e-03 0.0 0.0
4 1 -2.89021995857626423e-03 0.0 0.0
5 1 1.27250845656389725e-02 0.0 0.0
6 1 2.60546748724667099e-02 0.0 0.0
7 1 8.35413313417645784e-03 0.0 0.0
8 1 -1.99357404324060593e-02 0.0 0.0
8
Step 970
1 1 -8.37165407425756632e-03 0.0 0.0
2 1 -9.28486021424077511e-03 0.0 0.0
3 1 -8.86150234472561811e-03 0.0 0.0
4 1 -2.39568475778852239e-03 0.0 0.0
5 1 1.27372779007321243e-02 0.0 0.0
6 1 2.52158475245873245e-02 0.0 0.0
7 1 8.36096948242856172e-03 0.0 0.0
8 1 -1.86314668026627203e-02 0.0 0.0
8
Step 980
1 1 -9.94796986992188721e-03 0.0 0.0
2 1 -9.11210737988723748e-03 0.0 0.0
3 1 -1.01859754928626516e-02 0.0 0.0
4 1 -1.85978808854922332e-03 0.0 0.0
5 1 1.25998095338905481e-02 0.0 0.0
6 1 2.40775739637060573e-02 0.0 0.0
7 1 8.29275670206700531e-03 0.0 0.0
8 1 -1.71092098516965052e-02 0.0 0.0
8