8
Step 0
1 1 -9.24978520748113292e-03 0.0 0.0
2 1 -2.00674863751890316e-02 0.0 0.0
3 1 6.43870735922146779e-03 0.0 0.0
4 1 -3.44923344035657879e-03 0.0 0.0
5 1 -5.53531864812440572e-03 0.0 0.0
6 1 1.15840187305261827e-02 0.0 0.0
7 1 -2.57116946124168223e-02 0.0 0.0
8 1 -2.44076342703503923e-02 0.0 0.0
8
Step 10
1 1 -7.59640455109228136e-03 0.0 0.0
2 1 -2.01504995147073311e-02 0.0 0.0
3 1 3.60177679904427140e-03 0.0 0.0
4 1 -1.25108406166094042e-03 0.0 0.0
5 1 -8.99287121186518462e-03 0.0 0.0
6 1 1.06434911364923709e-02 0.0 0.0
7 1 -2.73904962607545086e-02 0.0 0.0
8 1 -2.67418085839231379e-02 0.0 0.0
8
Step 20
1 1 -5.72909543601765776e-03 0.0 0.0
2 1 -2.01047879323770808e-02 0.0 0.0
3 1 6.63974296502344171e-04 0.0 0.0
4 1 9.90196169760319779e-04 0.0 0.0
5 1 -1.25084586167248882e-02 0.0 0.0
6 1 9.48673849611116234e-03 0.0 0.0
7 1 -2.88070342146730385e-02 0.0 0.0
8 1 -2.88808927915741552e-02 0.0 0.0
8
Step 30
1 1 -3.75686589145873091e-03 0.0 0.0
2 1 -1.99216956644981680e-02 0.0 0.0
3 1 -2.17990715817240575e-03 0.0 0.0
4 1 3.12211399551554818e-03 0.0 0.0
5 1 -1.58372462784397705e-02 0.0 0.0
6 1 8.17925316914558907e-03 0.0 0.0
7 1 -2.98442351732876414e-02 0.0 0.0
8 1 -3.06633223101308514e-02 0.0 0.0
8
Step 40
1 1 -1.70723990304021090e-03 0.0 0.0
2 1 -1.96017144294430151e-02 0.0 0.0
3 1 -4.88605557252224949e-03 0.0 0.0
4 1 5.11060858480152057e-03 0.0 0.0
5 1 -1.89207052469509175e-02 0.0 0.0
6 1 6.74439901889846948e-03 0.0 0.0
7 1 -3.04875812245093761e-02 0.0 0.0
8 1 -3.20629887304311190e-02 0.0 0.0
8
Step 50
1 1 3.90904504161365132e-04 0.0 0.0
2 1 -1.91467436821403242e-02 0.0 0.0
3 1 -7.41255313075827368e-03 0.0 0.0
4 1 6.92369244540076267e-03 0.0 0.0
5 1 -2.17035891763130220e-02 0.0 0.0
6 1 5.20773518497525539e-03 0.0 0.0
7 1 -3.07282968202459705e-02 0.0 0.0
8 1 -3.30590876512467380e-02 0.0 0.0
8
Step 60
1 1 2.50773068981639162e-03 0.0 0.0
2 1 -1.85602586397033385e-02 0.0 0.0
3 1 -9.72020437569695410e-03 0.0 0.0
4 1 8.53217114051210875e-03 0.0 0.0
5 1 -2.41352219392265699e-02 0.0 0.0
6 1 3.59659056853352992e-03 0.0 0.0
7 1 -3.05638953782115010e-02 0.0 0.0
8 1 -3.36367896356408944e-02 0.0 0.0
8
Step 70
1 1 4.61292331746778177e-03 0.0 0.0
2 1 -1.78474233048007691e-02 0.0 0.0
3 1 -1.17734405511511764e-02 0.0 0.0
4 1 9.91040596332103986e-03 0.0 0.0
5 1 -2.61708150548820920e-02 0.0 0.0
6 1 1.93954081492883168e-03 0.0 0.0
7 1 -2.99986014546928491e-02 0.0 0.0
8 1 -3.37878329224134272e-02 0.0 0.0
8
Step 80
1 1 6.67624343951087832e-03 0.0 0.0
2 1 -1.70151298895957134e-02 0.0 0.0
3 1 -1.35412393034672965e-02 0.0 0.0
4 1 1.10370660785623579e-02 0.0 0.0
5 1 -2.77727339990348210e-02 0.0 0.0
6 1 2.65794390393749090e-04 0.0 0.0
7 1 -2.90435863261139654e-02 0.0 0.0
8 1 -3.35109697138415499e-02 0.0 0.0
8
Step 90
1 1 8.66813977331138373e-03 0.0 0.0
2 1 -1.60719540383159297e-02 0.0 0.0
3 1 -1.49979844038491527e-02 0.0 0.0
4 1 1.18958055826597058e-02 0.0 0.0
5 1 -2.89116209850790035e-02 0.0 0.0
6 1 -1.39549200899085745e-03 0.0 0.0
7 1 -2.77169675088968642e-02 0.0 0.0
8 1 -3.28122038592150930e-02 0.0 0.0
8
Step 100
1 1 1.05603887964504355e-02 0.0 0.0
2 1 -1.50280248956428091e-02 0.0 0.0
3 1 -1.61241901224014571e-02 0.0 0.0
4 1 1.24758021387503196e-02 0.0 0.0
5 1 -2.95672826669452875e-02 0.0 0.0
6 1 -3.01593607393082401e-03 0.0 0.0
7 1 -2.60435432123537342e-02 0.0 0.0
8 1 -3.17047733682572358e-02 0.0 0.0
8
Step 110
1 1 1.23267284674894190e-02 0.0 0.0
2 1 -1.38948185522422257e-02 0.0 0.0
3 1 -1.69070271214116913e-02 0.0 0.0
4 1 1.27721060507277207e-02 0.0 0.0
5 1 -2.97292655504982524e-02 0.0 0.0
6 1 -4.56864892610959073e-03 0.0 0.0
7 1 -2.40542583545809395e-02 0.0 0.0
8 1 -3.02088543555678948e-02 0.0 0.0
8
Step 120
1 1 1.39434437904917986e-02 0.0 0.0
2 1 -1.26848911594989976e-02 0.0 0.0
3 1 -1.73406065836935845e-02 0.0 0.0
4 1 1.27857680142755489e-02 0.0 0.0
5 1 -2.93970684476468971e-02 0.0 0.0
6 1 -6.02890522618541695e-03 0.0 0.0
7 1 -2.17854261787679589e-02 0.0 0.0
8 1 -2.83509903612503104e-02 0.0 0.0
8
Step 130
1 1 1.53898602428912401e-02 0.0 0.0
2 1 -1.14115733782504027e-02 0.0 0.0
3 1 -1.74260030447761505e-02 0.0 0.0
4 1 1.25237364716216781e-02 0.0 0.0
5 1 -2.85799764860648030e-02 0.0 0.0
6 1 -7.37472130341516180e-03 0.0 0.0
7 1 -1.92777548476318721e-02 0.0 0.0
8 1 -2.61632788568190097e-02 0.0 0.0
8
Step 140
1 1 1.66487069233862035e-02 0.0 0.0
2 1 -1.00886508423981298e-02 0.0 0.0
3 1 -1.71710215532721415e-02 0.0 0.0
4 1 1.19985382397533816e-02 0.0 0.0
5 1 -2.72965394806472701e-02 0.0 0.0
6 1 -8.58730651782445807e-03 0.0 0.0
7 1 -1.65752478598938657e-02 0.0 0.0
8 1 -2.36823716203458413e-02 0.0 0.0
8
Step 150
1 1 1.77063258389263227e-02 0.0 0.0
2 1 -8.73005600310490515e-03 0.0 0.0
3 1 -1.65897387242500242e-02 0.0 0.0
4 1 1.12277758686916574e-02 0.0 0.0
5 1 -2.55737523983832066e-02 0.0 0.0
6 1 -9.65136602722533633e-03 0.0 0.0
7 1 -1.37240575981260413e-02 0.0 0.0
8 1 -2.09483639967407223e-02 0.0 0.0
8
Step 160
1 1 1.85527236358558160e-02 0.0 0.0
2 1 -7.34959481926243663e-03 0.0 0.0
3 1 -1.57018667377994484e-02 0.0 0.0
4 1 1.02334893158061799e-02 0.0 0.0
5 1 -2.34460212583559487e-02 0.0 0.0
6 1 -1.05552486852357550e-02 0.0 0.0
7 1 -1.07713710880979804e-02 0.0 0.0
8 1 -1.80036565655860292e-02 0.0 0.0
8
Step 170
1 1 1.91814818645489361e-02 0.0 0.0
2 1 -5.96072712169526918e-03 0.0 0.0
3 1 -1.45320012966126712e-02 0.0 0.0
4 1 9.04143613751896141e-03 0.0 0.0
5 1 -2.09540101210881659e-02 0.0 0.0
6 1 -1.12909493108800350e-02 0.0 0.0
7 1 -7.76439639425672862e-03 0.0 0.0
8 1 -1.48918696308467397e-02 0.0 0.0
8
Step 180
1 1 1.95895569770509863e-02 0.0 0.0
2 1 -4.57641250063928196e-03 0.0 0.0
3 1 -1.31088172174125463e-02 0.0 0.0
4 1 7.68034303260793812e-03 0.0 0.0
5 1 -1.81434626457377887e-02 0.0 0.0
6 1 -1.18539874717466867e-02 0.0 0.0
7 1 -4.74949919105856037e-03 0.0 0.0
8 1 -1.16568770217718443e-02 0.0 0.0
8
Step 190
1 1 1.97770094150374366e-02 0.0 0.0
2 1 -3.20902524839841762e-03 0.0 0.0
3 1 -1.14642688354631324e-02 0.0 0.0
4 1 6.18117337069640140e-03 0.0 0.0
5 1 -1.50640766988052177e-02 0.0 0.0
6 1 -1.22431933464447751e-02 0.0 0.0
7 1 -1.77151545008082697e-03 0.0 0.0
8 1 -8.34200420567698941e-03 0.0 0.0
8
Step 200
1 1 1.97467021581516529e-02 0.0 0.0
2 1 -1.87033352293398546e-03 0.0 0.0
3 1 -9.63283876508430441e-03 0.0 0.0
4 1 4.57644285397166596e-03 0.0 0.0
5 1 -1.17684866008357109e-02 0.0 0.0
6 1 -1.24604344658184492e-02 0.0 0.0
7 1 1.12675819096098992e-03 0.0 0.0
8 1 -4.98941105047197644e-03 0.0 0.0
8
Step 210
1 1 1.95040041044087821e-02 0.0 0.0
2 1 -5.71530689113319140e-04 0.0 0.0
3 1 -7.65086117874554539e-03 0.0 0.0
4 1 2.89960190009071238e-03 0.0 0.0
5 1 -8.31137984137578396e-03 0.0 0.0
6 1 -1.25103155942353477e-02 0.0 0.0
7 1 3.90491640334264187e-03 0.0 0.0
8 1 -1.63965573388009630e-03 0.0 0.0
8
Step 220
1 1 1.90565246923957814e-02 0.0 0.0
2 1 6.76698375555855286e-04 0.0 0.0
3 1 -5.55592857851643952e-03 0.0 0.0
4 1 1.18449136564381511e-03 0.0 0.0
5 1 -4.74874831261441754e-03 0.0 0.0
6 1 -1.23998788077774504e-02 0.0 0.0
7 1 6.52517566970684318e-03 0.0 0.0
8 1 1.66858392290462182e-03 0.0 0.0
8
Step 230
1 1 1.84138958455942366e-02 0.0 0.0
2 1 1.86409591387818501e-03 0.0 0.0
3 1 -3.38637719623321488e-03 0.0 0.0
4 1 -5.35131204615156846e-04 0.0 0.0
5 1 -1.13725185334601726e-03 0.0 0.0
6 1 -1.21383232155721551e-02 0.0 0.0
7 1 8.95252868203001359e-03 0.0 0.0
8 1 4.89867033177983444e-03 0.0 0.0
8
Step 240
1 1 1.75876076357103228e-02 0.0 0.0
2 1 2.98075507109426445e-03 0.0 0.0
3 1 -1.18083667378317812e-03 0.0 0.0
4 1 -2.22600536832427438e-03 0.0 0.0
5 1 2.46634392952752197e-03 0.0 0.0
6 1 -1.17367548828667557e-02 0.0 0.0
7 1 1.11548698331008569e-02 0.0 0.0
8 1 8.01609445854075710e-03 0.0 0.0
8
Step 250
1 1 1.65908952235441845e-02 0.0 0.0
2 1 4.01706756142979158e-03 0.0 0.0
3 1 1.02217658229725346e-03 0.0 0.0
4 1 -3.85573921740495424e-03 0.0 0.0
5 1 6.00570221634974272e-03 0.0 0.0
6 1 -1.12079684030831472e-02 0.0 0.0
7 1 1.31031341867920322e-02 0.0 0.0
8 1 1.09885415767676641e-02 0.0 0.0
8
Step 260
1 1 1.54386656510900108e-02 0.0 0.0
2 1 4.96371140637011463e-03 0.0 0.0
3 1 3.18464711729866783e-03 0.0 0.0
4 1 -5.39316151719220448e-03 0.0 0.0
5 1 9.42546964884873918e-03 0.0 0.0
6 1 -1.05662533743703900e-02 0.0 0.0
7 1 1.47714824371958462e-02 0.0 0.0
8 1 1.37859784706270312e-02 0.0 0.0
8
Step 270
1 1 1.41474439816364258e-02 0.0 0.0
2 1 5.81169157851599890e-03 0.0 0.0
3 1 5.26945520063383868e-03 0.0 0.0
4 1 -6.80867913767120927e-03 0.0 0.0
5 1 1.26718923512506125e-02 0.0 0.0
6 1 -9.82721291970397627e-03 0.0 0.0
7 1 1.61375513493717294e-02 0.0 0.0
8 1 1.63807953916546047e-02 0.0 0.0
8
Step 280
1 1 1.27353111511034171e-02 0.0 0.0
2 1 6.55244189501157006e-03 0.0 0.0
3 1 7.24080126275935057e-03 0.0 0.0
4 1 -8.07466032934097376e-03 0.0 0.0
5 1 1.56935209881365542e-02 0.0 0.0
6 1 -9.00757818286140703e-03 0.0 0.0
7 1 1.71827746388786631e-02 0.0 0.0
8 1 1.87480213683773739e-02 0.0 0.0
8
Step 290
1 1 1.12218033099458752e-02 0.0 0.0
2 1 7.17799031989042272e-03 0.0 0.0
3 1 9.06467428775015877e-03 0.0 0.0
4 1 -9.16585527927244251e-03 0.0 0.0
5 1 1.84420135227147432e-02 0.0 0.0
6 1 -8.12500271498547977e-03 0.0 0.0
7 1 1.78927642120817673e-02 0.0 0.0
8 1 2.08656148213976142e-02 0.0 0.0
8
Step 300
1 1 9.62774585422778231e-03 0.0 0.0
2 1 7.68118171348843113e-03 0.0 0.0
3 1 1.07093668714996672e-02 0.0 0.0
4 1 -1.00598529592881396e-02 0.0 0.0
5 1 2.08730222395568966e-02 0.0 0.0
6 1 -7.19782359411846612e-03 0.0 0.0
7 1 1.82577268370015706e-02 0.0 0.0
8 1 2.27148148533502930e-02 0.0 0.0
8
Step 310
1 1 7.97500449665494889e-03 0.0 0.0
2 1 8.05594256534520291e-03 0.0 0.0
3 1 1.21460272253141356e-02 0.0 0.0
4 1 -1.07375595375631943e-02 0.0 0.0
5 1 2.29471294153522111e-02 0.0 0.0
6 1 -6.24478135597310823e-03 0.0 0.0
7 1 1.82728776722115641e-02 0.0 0.0
8 1 2.42805239245709389e-02 0.0 0.0
8
Step 320
1 1 6.28614884585560005e-03 0.0 0.0
2 1 8.29756300863462165e-03 0.0 0.0
3 1 1.33492269901155872e-02 0.0 0.0
4 1 -1.11836706305915128e-02 0.0 0.0
5 1 2.46307770177622218e-02 0.0 0.0
6 1 -5.28469744728563354e-03 0.0 0.0
7 1 1.79388015996853716e-02 0.0 0.0
8 1 2.55516816338405041e-02 0.0 0.0
8
Step 330
1 1 4.58403833568510506e-03 0.0 0.0
2 1 8.40296494751072501e-03 0.0 0.0
3 1 1.42975144218044879e-02 0.0 0.0
4 1 -1.13870998397092148e-02 0.0 0.0
5 1 2.58971231498842276e-02 0.0 0.0
6 1 -4.33611493261675061e-03 0.0 0.0
7 1 1.72617086975759837e-02 0.0 0.0
8 1 2.65215835332496090e-02 0.0 0.0
8
Step 340
1 1 2.89135319456790144e-03 0.0 0.0
2 1 8.37092386855386138e-03 0.0 0.0
3 1 1.49739161402976939e-02 0.0 0.0
4 1 -1.13413218257591378e-02 0.0 0.0
5 1 2.67267542075664694e-02 0.0 0.0
6 1 -3.41691469227437200e-03 0.0 0.0
7 1 1.62535338212862757e-02 0.0 0.0
8 1 2.71880993925863040e-02 0.0 0.0
8
Step 350
1 1 1.23010251720455507e-03 0.0 0.0
2 1 8.20221696788759475e-03 0.0 0.0
3 1 1.53663481469215393e-02 0.0 0.0
4 1 -1.10445912685661115e-02 0.0 0.0
5 1 2.71081882449203532e-02 0.0 0.0
6 1 -2.54392463715563850e-03 0.0 0.0
7 1 1.49318428417646778e-02 0.0 0.0
8 1 2.75537523988157902e-02 0.0 0.0
8
Step 360
1 1 -3.78853398924458638e-04 0.0 0.0
2 1 7.89968060256074703e-03 0.0 0.0
3 1 1.54678991677348627e-02 0.0 0.0
4 1 -1.05000094405542088e-02 0.0 0.0
5 1 2.70381214763771444e-02 0.0 0.0
6 1 -1.73254292449882808e-03 0.0 0.0
7 1 1.33195281358733028e-02 0.0 0.0
8 1 2.76256337488053477e-02 0.0 0.0
8
Step 370
1 1 -1.91622861397447788e-03 0.0 0.0
2 1 7.46817280016408378e-03 0.0 0.0
3 1 1.52769572689249785e-02 0.0 0.0
4 1 -9.71542601848622914e-03 0.0 0.0
5 1 2.65213939373790016e-02 0.0 0.0
6 1 -9.96397196092541938e-04 0.0 0.0
7 1 1.14443002304304136e-02 0.0 0.0
8 1 2.74151442865485824e-02 0.0 0.0
8
Step 380
1 1 -3.36465135854499987e-03 0.0 0.0
2 1 6.91444801093571166e-03 0.0 0.0
3 1 1.47971642625115106e-02 0.0 0.0
4 1 -8.70318209819313966e-03 0.0 0.0
5 1 2.55706784842997178e-02 0.0 0.0
6 1 -3.47060048508417932e-04 0.0 0.0
7 1 9.33800693379567386e-03 0.0 0.0
8 1 2.69375737901260646e-02 0.0 0.0
8
Step 390
1 1 -4.70889471279678853e-03 0.0 0.0
2 1 6.24695939283039566e-03 0.0 0.0
3 1 1.40372006338250321e-02 0.0 0.0
4 1 -7.47971769465293444e-03 0.0 0.0
5 1 2.42059255020980052e-02 0.0 0.0
6 1 2.06163716908139798e-04 0.0 0.0
7 1 7.03583148191412600e-03 0.0 0.0
8 1 2.62115463623039495e-02 0.0 0.0
8
Step 400
1 1 -5.93599177477658908e-03 0.0 0.0
2 1 5.47560958414004123e-03 0.0 0.0
3 1 1.30104234591624686e-02 0.0 0.0
4 1 -6.06508028084786453e-03 0.0 0.0
5 1 2.24536198888794468e-02 0.0 0.0
6 1 6.56369430695865220e-04 0.0 0.0
7 1 4.57543340650205625e-03 0.0 0.0
8 1 2.52583742520989842e-02 0.0 0.0
8
Step 410
1 1 -7.03524963105662485e-03 0.0 0.0
2 1 4.61147619497527961e-03 0.0 0.0
3 1 1.17343960365596592e-02 0.0 0.0
4 1 -4.48237794724165931e-03 0.0 0.0
5 1 2.03459228019733304e-02 0.0 0.0
6 1 9.99103826337909874e-04 0.0 0.0
7 1 1.99609771871671251e-03 0.0 0.0
8 1 2.41013699338829719e-02 0.0 0.0
8
Step 420
1 1 -7.99819231169909481e-03 0.0 0.0
2 1 3.66654223594855113e-03 0.0 0.0
3 1 1.02303559922476885e-02 0.0 0.0
4 1 -2.75722034704622889e-03 0.0 0.0
5 1 1.79197742015012942e-02 0.0 0.0
6 1 1.23234206911464910e-03 0.0 0.0
7 1 -6.62050648710847483e-04 0.0 0.0
8 1 2.27651662000124232e-02 0.0 0.0
8
Step 430
1 1 -8.81846550557256574e-03 0.0 0.0
2 1 2.65345998745307845e-03 0.0 0.0
3 1 8.52266679102358163e-03 0.0 0.0
4 1 -9.17183136969698404e-04 0.0 0.0
5 1 1.52160222972099780e-02 0.0 0.0
6 1 1.35640285914328433e-03 0.0 0.0
7 1 -3.35872734065766933e-03 0.0 0.0
8 1 2.12750871271578171e-02 0.0 0.0
8
Step 440
1 1 -9.49172596494473643e-03 0.0 0.0
2 1 1.58536704756186489e-03 0.0 0.0
3 1 6.63828806977845819e-03 0.0 0.0
4 1 1.00868043068753975e-03 0.0 0.0
5 1 1.22786266113063605e-02 0.0 0.0
6 1 1.37381668321129454e-03 0.0 0.0
7 1 -6.05404569082219381e-03 0.0 0.0
8 1 1.96566015077209062e-02 0.0 0.0
8
Step 450
1 1 -1.00155261750603363e-02 0.0 0.0
2 1 4.75759305346473607e-04 0.0 0.0
3 1 4.60628702840161584e-03 0.0 0.0
4 1 2.99027039288139989e-03 0.0 0.0
5 1 9.15395914276619094e-03 0.0 0.0
6 1 1.28916248561675097e-03 0.0 0.0
7 1 -8.70895300391182937e-03 0.0 0.0
8 1 1.79348774152701708e-02 0.0 0.0
8
Step 460
1 1 -1.03891982808090935e-02 0.0 0.0
2 1 -6.61586393547511343e-04 0.0 0.0
3 1 2.45739954399481954e-03 0.0 0.0
4 1 4.99681508440744885e-03 0.0 0.0
5 1 5.89020761730890945e-03 0.0 0.0
6 1 1.10888631433106758e-03 0.0 0.0
7 1 -1.12855652789735118e-02 0.0 0.0
8 1 1.61344438122305381e-02 0.0 0.0
8
Step 470
1 1 -1.06137407218404676e-02 0.0 0.0
2 1 -1.81265411095957131e-03 0.0 0.0
3 1 2.23637710709488548e-04 0.0 0.0
4 1 6.99720153319545197e-03 0.0 0.0
5 1 2.53686744969424229e-03 0.0 0.0
6 1 8.41112507178526803e-04 0.0 0.0
7 1 -1.37474307095515943e-02 0.0 0.0
8 1 1.42789535454394632e-02 0.0 0.0
8
Step 480
1 1 -1.06917125820364389e-02 0.0 0.0
2 1 -2.96321219831392800e-03 0.0 0.0
3 1 -2.06206854546900960e-03 0.0 0.0
4 1 8.96027925650692662e-03 0.0 0.0
5 1 -8.55704756110646741e-04 0.0 0.0
6 1 4.95454210454156587e-04 0.0 0.0
7 1 -1.60597576227106027e-02 0.0 0.0
8 1 1.23910325481885342e-02 0.0 0.0
8
Step 490
1 1 -1.06271413917509369e-02 0.0 0.0
2 1 -4.09883550779926824e-03 0.0 0.0
3 1 -4.36621345778099960e-03 0.0 0.0
4 1 1.08551590947936882e-02 0.0 0.0
5 1 -4.23671275801017731e-03 0.0 0.0
6 1 8.28259297157855803e-05 0.0 0.0
7 1 -1.81896424801341952e-02 0.0 0.0
8 1 1.04921933485643670e-02 0.0 0.0
8
Step 500
1 1 -1.04254491746302493e-02 0.0 0.0
2 1 -5.20494268686190649e-03 0.0 0.0
3 1 -6.65506034084810925e-03 0.0 0.0
4 1 1.26515291623738278e-02 0.0 0.0
5 1 -7.55535789541399942e-03 0.0 0.0
6 1 -3.84743109650750284e-04 0.0 0.0
7 1 -2.01063286919720766e-02 0.0 0.0
8 1 8.60278759662629240e-03 0.0 0.0
8
Step 510
1 1 -1.00933988549640075e-02 0.0 0.0
2 1 -6.26686265280550301e-03 0.0 0.0
3 1 -8.89500761343869038e-03 0.0 0.0
4 1 1.43200073980671062e-02 0.0 0.0
5 1 -1.07613306878174379e-02 0.0 0.0
6 1 -8.94299232713293714e-04 0.0 0.0
7 1 -2.17815180228807144e-02 0.0 0.0
8 1 6.74197239799677848e-03 0.0 0.0
8
Step 520
1 1 -9.63905884917021748e-03 0.0 0.0
2 1 -7.26994103031838434e-03 0.0 0.0
3 1 -1.10529910755455141e-02 0.0 0.0
4 1 1.58325446873567068e-02 0.0 0.0
5 1 -1.38053877916385348e-02 0.0 0.0
6 1 -1.43216463278244958e-03 0.0 0.0
7 1 -2.31897443136962443e-02 0.0 0.0
8 1 4.92766848928745480e-03 0.0 0.0
8
Step 530
1 1 -9.07177840527375635e-03 0.0 0.0
2 1 -8.19969281571718625e-03 0.0 0.0
3 1 -1.30969328093125566e-02 0.0 0.0
4 1 1.71628841435855217e-02 0.0 0.0
5 1 -1.66400323820696423e-02 0.0 0.0
6 1 -1.98415445409833371e-03 0.0 0.0
7 1 -2.43088054060499430e-02 0.0 0.0
8 1 3.17649405369595760e-03 0.0 0.0
8
Step 540
1 1 -8.40216146215093732e-03 0.0 0.0
2 1 -9.04200194712333032e-03 0.0 0.0
3 1 -1.49962398564606209e-02 0.0 0.0
4 1 1.82870711974523863e-02 0.0 0.0
5 1 -1.92202989902981979e-02 0.0 0.0
6 1 -2.53581580099039973e-03 0.0 0.0
7 1 -2.51202350923314319e-02 0.0 0.0
8 1 1.50366534764121459e-03 0.0 0.0
8
Step 550
1 1 -7.64202412247452258e-03 0.0 0.0
2 1 -9.78336221527979256e-03 0.0 0.0
3 1 -1.67223458810351056e-02 0.0 0.0
4 1 1.91839967471695017e-02 0.0 0.0
5 1 -2.15046242616160239e-02 0.0 0.0
6 1 -3.07269058588583539e-03 0.0 0.0
7 1 -2.56097843183070786e-02 0.0 0.0
8 1 -7.71366972043477231e-05 0.0 0.0
8
Step 560
1 1 -6.80432126333562360e-03 0.0 0.0
2 1 -1.04111477096463026e-02 0.0 0.0
3 1 -1.82492773851685060e-02 0.0 0.0
4 1 1.98359437546231226e-02 0.0 0.0
5 1 -2.34557653813207007e-02 0.0 0.0
6 1 -3.58059968537373288e-03 0.0 0.0
7 1 -2.57678714245250379e-02 0.0 0.0
8 1 -1.55392704264940341e-03 0.0 0.0
8
Step 570
1 1 -5.90303133763402706e-03 0.0 0.0
2 1 -1.09138955998431559e-02 0.0 0.0
3 1 -1.95542149364435411e-02 0.0 0.0
4 1 2.02290987520252520e-02 0.0 0.0
5 1 -2.50417111463581005e-02 0.0 0.0
6 1 -4.04594098881299290e-03 0.0 0.0
7 1 -2.55899563945153306e-02 0.0 0.0
8 1 -2.91659083751696219e-03 0.0 0.0
8
Step 580
1 1 -4.95299427019342021e-03 0.0 0.0
2 1 -1.12815803857424651e-02 0.0 0.0
3 1 -2.06180118264055190e-02 0.0 0.0
4 1 2.03539858343642147e-02 0.0 0.0
5 1 -2.62365200762041777e-02 0.0 0.0
6 1 -4.45598947903563802e-03 0.0 0.0
7 1 -2.50767949391486195e-02 0.0 0.0
8 1 -4.15705317270542371e-03 0.0 0.0
8
Step 590
1 1 -3.96970436407134003e-03 0.0 0.0
2 1 -1.15058575669603636e-02 0.0 0.0
3 1 -2.14256295950340202e-02 0.0 0.0
4 1 2.02057829933551605e-02 0.0 0.0
5 1 -2.70210180172629384e-02 0.0 0.0
6 1 -4.79918433738392436e-03 0.0 0.0
7 1 -2.42345352400368738e-02 0.0 0.0
8 1 -5.26942357563191244e-03 0.0 0.0
8
Step 600
1 1 -2.96906701800151232e-03 0.0 0.0
2 1 -1.15802564417847448e-02 0.0 0.0
3 1 -2.19664529110701924e-02 0.0 0.0
4 1 1.97844890509835634e-02 0.0 0.0
5 1 -2.73832953767165800e-02 0.0 0.0
6 1 -5.06538688611741280e-03 0.0 0.0
7 1 -2.30746329461282325e-02 0.0 0.0
8 1 -6.25009484428174812e-03 0.0 0.0
8
Step 610
1 1 -1.96713355146910631e-03 0.0 0.0
2 1 -1.15003064648644907e-02 0.0 0.0
3 1 -2.22344552885478421e-02 0.0 0.0
4 1 1.90949228352741210e-02 0.0 0.0
5 1 -2.73189606755840399e-02 0.0 0.0
6 1 -5.24609431243381642e-03 0.0 0.0
7 1 -2.16135772391000958e-02 0.0 0.0
8 1 -7.09777902994445254e-03 0.0 0.0
8
Step 620
1 1 -9.79831440105732475e-04 0.0 0.0
2 1 -1.12635887849637899e-02 0.0 0.0
3 1 -2.22282009482991684e-02 0.0 0.0
4 1 1.81465526306233277e-02 0.0 0.0
5 1 -2.68311302238486704e-02 0.0 0.0
6 1 -5.33459749110521374e-03 0.0 0.0
7 1 -1.98724401636581581e-02 0.0 0.0
8 1 -7.81346912082999182e-03 0.0 0.0
8
Step 630
1 1 -2.27070377799663481e-05 0.0 0.0
2 1 -1.08697132888868966e-02 0.0 0.0
3 1 -2.19506849094106560e-02 0.0 0.0
4 1 1.69531708415108159e-02 0.0 0.0
5 1 -2.59301599168111976e-02 0.0 0.0
6 1 -5.32607635277833509e-03 0.0 0.0
7 1 -1.78762800052652687e-02 0.0 0.0
8 1 -8.40032243347287738e-03 0.0 0.0
8
Step 640
1 1 8.89305727886578225e-04 0.0 0.0
2 1 -1.03202303867235105e-02 0.0 0.0
3 1 -2.14090306962562774e-02 0.0 0.0
4 1 1.55324436320208956e-02 0.0 0.0
5 1 -2.46331503740961875e-02 0.0 0.0
6 1 -5.21763231247098815e-03 0.0 0.0
7 1 -1.56534442485731125e-02 0.0 0.0
8 1 -8.86346973095546338e-03 0.0 0.0
8
Step 650
1 1 1.74208338272300233e-03 0.0 0.0
2 1 -9.61849441302801457e-03 0.0 0.0
3 1 -2.06140801767737102e-02 0.0 0.0
4 1 1.39053757942488500e-02 0.0 0.0
5 1 -2.29632769866181669e-02 0.0 0.0
6 1 -5.00826327527406981e-03 0.0 0.0
7 1 -1.32348261204039974e-02 0.0 0.0
8 1 -9.20976140675501195e-03 0.0 0.0
8
Step 660
1 1 2.52247730572172047e-03 0.0 0.0
2 1 -8.76950048003597056e-03 0.0 0.0
3 1 -1.95799202983470942e-02 0.0 0.0
4 1 1.20957357853103548e-02 0.0 0.0
5 1 -2.09490089210759359e-02 0.0 0.0
6 1 -4.69879168712533397e-03 0.0 0.0
7 1 -1.06531296434778950e-02 0.0 0.0
8 1 -9.44746760741414261e-03 0.0 0.0
8
Step 670
1 1 3.21844938401527787e-03 0.0 0.0
2 1 -7.77971787703424494e-03 0.0 0.0
3 1 -1.83233945710612606e-02 0.0 0.0
4 1 1.01294843372250441e-02 0.0 0.0
5 1 -1.86232843019563596e-02 0.0 0.0
6 1 -4.29175923099101627e-03 0.0 0.0
7 1 -7.94219169374199910e-03 0.0 0.0
8 1 -9.58595218561470244e-03 0.0 0.0
8
Step 680
1 1 3.81918540812742520e-03 0.0 0.0
2 1 -6.65694043708750949e-03 0.0 0.0
3 1 -1.68636420569657289e-02 0.0 0.0
4 1 8.03424295594347415e-03 0.0 0.0
5 1 -1.60227029531204331e-02 0.0 0.0
6 1 -3.79130269827207067e-03 0.0 0.0
7 1 -5.13639730349120180e-03 0.0 0.0
8 1 -9.63534063826124339e-03 0.0 0.0
8
Step 690
1 1 4.31519088452108485e-03 0.0 0.0
2 1 -5.41016855171603823e-03 0.0 0.0
3 1 -1.52216946401254258e-02 0.0 0.0
4 1 5.83882753100534776e-03 0.0 0.0
5 1 -1.31867850601238672e-02 0.0 0.0
6 1 -3.20302435515867597e-03 0.0 0.0
7 1 -2.27020878351275480e-03 0.0 0.0
8 1 -9.60619997967858234e-03 0.0 0.0
8
Step 700
1 1 4.69837124702193482e-03 0.0 0.0
2 1 -4.04953040612383332e-03 0.0 0.0
3 1 -1.34201480688251155e-02 0.0 0.0
4 1 3.57285920386825068e-03 0.0 0.0
5 1 -1.01573266337712485e-02 0.0 0.0
6 1 -2.53386721373196613e-03 0.0 0.0
7 1 6.22187252875521695e-04 0.0 0.0
8 1 -9.50924455501621878e-03 0.0 0.0
8
Step 710
1 1 4.96209762131841030e-03 0.0 0.0
2 1 -2.58624320783371921e-03 0.0 0.0
3 1 -1.14829078535609759e-02 0.0 0.0
4 1 1.26645163976001800e-03 0.0 0.0
5 1 -6.97786360896296334e-03 0.0 0.0
6 1 -1.79200164309905523e-03 0.0 0.0
7 1 3.50712595502008237e-03 0.0 0.0
8 1 -9.35507705417434887e-03 0.0 0.0
8
Step 720
1 1 5.10126090899122499e-03 0.0 0.0
2 1 -1.03260955197177220e-03 0.0 0.0
3 1 -9.43500008445458463e-03 0.0 0.0
4 1 -1.05003740545278786e-03 0.0 0.0
5 1 -3.69323831843864844e-03 0.0 0.0
6 1 -9.86725365921850041e-04 0.0 0.0
7 1 6.35162643570706068e-03 0.0 0.0
8 1 -9.15396931455296492e-03 0.0 0.0
8
Step 730
1 1 5.11231926204757433e-03 0.0 0.0
2 1 5.97960372521531012e-04 0.0 0.0
3 1 -7.30242981074550723e-03 0.0 0.0
4 1 -3.34621073405637392e-03 0.0 0.0
5 1 -3.49246818959547851e-04 0.0 0.0
6 1 -1.28374649012225555e-04 0.0 0.0
7 1 9.12350126029146287e-03 0.0 0.0
8 1 -8.91568351452247214e-03 0.0 0.0
8
Step 740
1 1 4.99334487092710846e-03 0.0 0.0
2 1 2.29091355913184401e-03 0.0 0.0
3 1 -5.11206490356812173e-03 0.0 0.0
4 1 -5.59181811238301015e-03 0.0 0.0
5 1 3.00766567154036029e-03 0.0 0.0
6 1 7.71759122188719979e-04 0.0 0.0
7 1 1.17914481979444312e-02 0.0 0.0
8 1 -8.64933137761568840e-03 0.0 0.0
8
Step 750
1 1 4.74407445499968206e-03 0.0 0.0
2 1 4.03052151987792588e-03 0.0 0.0
3 1 -2.89152065091775271e-03 0.0 0.0
4 1 -7.75695155592808373e-03 0.0 0.0
5 1 6.33070049233872088e-03 0.0 0.0
6 1 1.70151594703715336e-03 0.0 0.0
7 1 1.43251588635463535e-02 0.0 0.0
8 1 -8.36326711717909517e-03 0.0 0.0
8
Step 760
1 1 4.36596431630119179e-03 0.0 0.0
2 1 5.79986764599772255e-03 0.0 0.0
3 1 -6.69019706583690510e-04 0.0 0.0
4 1 -9.81227492598514203e-03 0.0 0.0
5 1 9.57303324782731412e-03 0.0 0.0
6 1 2.64796671269211439e-03 0.0 0.0
7 1 1.66954747705693358e-02 0.0 0.0
8 1 -8.06500898293818248e-03 0.0 0.0
8
Step 770
1 1 3.86224630865145612e-03 0.0 0.0
2 1 7.58087282277696006e-03 0.0 0.0
3 1 1.52679624345737099e-03 0.0 0.0
4 1 -1.17293086044379571e-02 0.0 0.0
5 1 1.26882109290034455e-02 0.0 0.0
6 1 3.59753577393652837e-03 0.0 0.0
7 1 1.88746139835703590e-02 0.0 0.0
8 1 -7.76118425652565485e-03 0.0 0.0
8
Step 780
1 1 3.23797663159560269e-03 0.0 0.0
2 1 9.35437680648872234e-03 0.0 0.0
3 1 3.66712237620773259e-03 0.0 0.0
4 1 -1.34807827260597004e-02 0.0 0.0
5 1 1.56306476658384028e-02 0.0 0.0
6 1 4.53615550474124451e-03 0.0 0.0
7 1 2.08364816169286406e-02 0.0 0.0
8 1 -7.45749316213967922e-03 0.0 0.0
8
Step 790
1 1 2.50006584519649622e-03 0.0 0.0
2 1 1.11002902489313136e-02 0.0 0.0
3 1 5.72332654450080029e-03 0.0 0.0
4 1 -1.50410629926677007e-02 0.0 0.0
5 1 1.83562357768166790e-02 0.0 0.0
6 1 5.44945922185456882e-03 0.0 0.0
7 1 2.25570655946344505e-02 0.0 0.0
8 1 -7.15868817557865564e-03 0.0 0.0
8
Step 800
1 1 1.65727658895538582e-03 0.0 0.0
2 1 1.27978273993381159e-02 0.0 0.0
3 1 7.66736828774210784e-03 0.0 0.0
4 1 -1.63866421310254334e-02 0.0 0.0
5 1 2.08230727582624855e-02 0.0 0.0
6 1 6.32301517785687633e-03 0.0 0.0
7 1 2.40149062746992485e-02 0.0 0.0
8 1 -6.86856640467765987e-03 0.0 0.0
8
Step 810
1 1 7.20175656979535860e-04 0.0 0.0
2 1 1.44258223814103491e-02 0.0 0.0
3 1 9.47229385395075528e-03 0.0 0.0
4 1 -1.74966785633929971e-02 0.0 0.0
5 1 2.29922867927547445e-02 0.0 0.0
6 1 7.14259964635743320e-03 0.0 0.0
7 1 2.51916159166398063e-02 0.0 0.0
8 1 -6.58997387622243039e-03 0.0 0.0
8
Step 820
1 1 -2.98970440309680716e-04 0.0 0.0
2 1 1.59631229791352448e-02 0.0 0.0
3 1 1.11127892489536872e-02 0.0 0.0
4 1 -1.83535531625661080e-02 0.0 0.0
5 1 2.48289252856705896e-02 0.0 0.0
6 1 7.89450189667256080e-03 0.0 0.0
7 1 2.60724129427543916e-02 0.0 0.0
8 1 -6.32482153193118096e-03 0.0 0.0
8
Step 830
1 1 -1.38636263576064718e-03 0.0 0.0
2 1 1.73890460790686076e-02 0.0 0.0
3 1 1.25657634713048361e-02 0.0 0.0
4 1 -1.89434066265716412e-02 0.0 0.0
5 1 2.63028553400265833e-02 0.0 0.0
6 1 8.56584869581725195e-03 0.0 0.0
7 1 2.66466280526458064e-02 0.0 0.0
8 1 -6.07411338453133463e-03 0.0 0.0
8
Step 840
1 1 -2.52689909201423519e-03 0.0 0.0
2 1 1.86838697745670933e-02 0.0 0.0
3 1 1.38109265262963913e-02 0.0 0.0
4 1 -1.92566155670087086e-02 0.0 0.0
5 1 2.73896145057233552e-02 0.0 0.0
6 1 9.14493163388365067e-03 0.0 0.0
7 1 2.69081359285029895e-02 0.0 0.0
8 1 -5.83798754252104306e-03 0.0 0.0
8
Step 850
1 1 -3.70446050101894391e-03 0.0 0.0
2 1 1.98293302684341838e-02 0.0 0.0
3 1 1.48313227915108405e-02 0.0 0.0
4 1 -1.92881660061068813e-02 0.0 0.0
5 1 2.80711467020520709e-02 0.0 0.0
6 1 9.62151780563899779e-03 0.0 0.0
7 1 2.68556685228692471e-02 0.0 0.0
8 1 -5.61577066959680939e-03 0.0 0.0
8
Step 860
1 1 -4.90223718743856233e-03 0.0 0.0
2 1 2.08090885157102175e-02 0.0 0.0
3 1 1.56137807590000250e-02 0.0 0.0
4 1 -1.90378890448752551e-02 0.0 0.0
5 1 2.83363630654466479e-02 0.0 0.0
6 1 9.98712380264213558e-03 0.0 0.0
7 1 2.64929740069878086e-02 0.0 0.0
8 1 -5.40604595895613580e-03 0.0 0.0
8
Step 870
1 1 -6.10307925594245123e-03 0.0 0.0
2 1 2.16091328331399456e-02 0.0 0.0
3 1 1.61492454787958081e-02 0.0 0.0
4 1 -1.85105345033545476e-02 0.0 0.0
5 1 2.81814804534017138e-02 0.0 0.0
6 1 1.02352348732845932e-02 0.0 0.0
7 1 2.58287986679802822e-02 0.0 0.0
8 1 -5.20673398996086660e-03 0.0 0.0
8
Step 880
1 1 -7.28984837295612934e-03 0.0 0.0
2 1 2.22180894537965662e-02 0.0 0.0
3 1 1.64329698122389657e-02 0.0 0.0
4 1 -1.77156729391221325e-02 0.0 0.0
5 1 2.76101098666231698e-02 0.0 0.0
6 1 1.03614553794282808e-02 0.0 0.0
7 1 2.48766857056808913e-02 0.0 0.0
8 1 -5.01518505039062670e-03 0.0 0.0
8
Step 890
1 1 -8.44574995249357773e-03 0.0 0.0
2 1 2.26274223867418377e-02 0.0 0.0
3 1 1.64645537174801099e-02 0.0 0.0
4 1 -1.66674325260039308e-02 0.0 0.0
5 1 2.66330903684441657e-02 0.0 0.0
6 1 1.03635827778469514e-02 0.0 0.0
7 1 2.36546026130954185e-02 0.0 0.0
8 1 -4.82828081581746990e-03 0.0 0.0
8
Step 900
1 1 -9.55462745332633610e-03 0.0 0.0
2 1 2.28315154841118584e-02 0.0 0.0
3 1 1.62478354087051552e-02 0.0 0.0
4 1 -1.53840924166520222e-02 0.0 0.0
5 1 2.52680877117522004e-02 0.0 0.0
6 1 1.02416043969391305e-02 0.0 0.0
7 1 2.21844249877367408e-02 0.0 0.0
8 1 -4.64254281677383644e-03 0.0 0.0
8
Step 910
1 1 -1.06012056500473031e-02 0.0 0.0
2 1 2.28276415446921274e-02 0.0 0.0
3 1 1.57906521557751034e-02 0.0 0.0
4 1 -1.38875661675729716e-02 0.0 0.0
5 1 2.35389973095437924e-02 0.0 0.0
6 1 9.99762319834783010e-03 0.0 0.0
7 1 2.04913168456546321e-02 0.0 0.0
8 1 -4.45424497723833322e-03 0.0 0.0
8
Step 920
1 1 -1.15712762065739976e-02 0.0 0.0
2 1 2.26158338637931847e-02 0.0 0.0
3 1 1.51044995655241696e-02 0.0 0.0
4 1 -1.22028159078753085e-02 0.0 0.0
5 1 2.14752055150424989e-02 0.0 0.0
6 1 9.63572447696411753e-03 0.0 0.0
7 1 1.86030541637003805e-02 0.0 0.0
8 1 -4.25952768544649290e-03 0.0 0.0
8
Step 930
1 1 -1.24518255661037330e-02 0.0 0.0
2 1 2.21986834995795204e-02 0.0 0.0
3 1 1.42041247447438016e-02 0.0 0.0
4 1 -1.03572394114544719e-02 0.0 0.0
5 1 1.91107696830905040e-02 0.0 0.0
6 1 9.16179927108587422e-03 0.0 0.0
7 1 1.65493388454045591e-02 0.0 0.0
8 1 -4.05451130014988260e-03 0.0 0.0
8
Step 940
1 1 -1.32311110433575053e-02 0.0 0.0
2 1 2.15810898517155084e-02 0.0 0.0
3 1 1.31070899850525766e-02 0.0 0.0
4 1 -8.38006831179744990e-03 0.0 0.0
5 1 1.64835758631945856e-02 0.0 0.0
6 1 8.58334172552202221e-03 0.0 0.0
7 1 1.43611450387669051e-02 0.0 0.0
8 1 -3.83540758901412121e-03 0.0 0.0
8
Step 950
1 1 -1.38986953265549697e-02 0.0 0.0
2 1 2.07699927536082948e-02 0.0 0.0
3 1 1.18333397716875888e-02 0.0 0.0
4 1 -6.30180748198263217e-03 0.0 0.0
5 1 1.36345242854151449e-02 0.0 0.0
6 1 7.90923680675922197e-03 0.0 0.0
7 1 1.20701300481424849e-02 0.0 0.0
8 1 -3.59862820288311871e-03 0.0 0.0
8
Step 960
1 1 -1.44454520616758460e-02 0.0 0.0
2 1 1.97741115413433907e-02 0.0 0.0
3 1 1.04047961886139413e-02 0.0 0.0
4 1 -4.15373476850999096e-03 0.0 0.0
5 1 1.06067791163163682e-02 0.0 0.0
6 1 7.14955201809609926e-03 0.0 0.0
7 1 9.70812981789181441e-03 0.0 0.0
8 1 -3.34088977760617963e-03 0.0 0.0
8
Step 970
1 1 -1.48635558866860393e-02 0.0 0.0
2 1 1.86037112579008485e-02 0.0 0.0
3 1 8.84499793217306297e-03 0.0 0.0
4 1 -1.96746867945283644e-03 0.0 0.0
5 1 7.44510285142592314e-03 0.0 0.0
6 1 6.31534275072227758e-03 0.0 0.0
7 1 7.30674608357854104e-03 0.0 0.0
8 1 -3.05931552105015566e-03 0.0 0.0
8
Step 980
1 1 -1.51464695156428870e-02 0.0 0.0
2 1 1.72704092597591626e-02 0.0 0.0
3 1 7.17878797779452314e-03 0.0 0.0
4 1 2.25399034517825977e-04 0.0 0.0
5 1 4.19527969665142025e-03 0.0 0.0
6 1 5.41847636065339623e-03 0.0 0.0
7 1 4.89702051789951773e-03 0.0 0.0